Header

84 atoms
1 atom types

0.0    8.556624315 xlo xhi
0.0    7.410254028 ylo yhi
0.0   31.306200000 zlo zhi

4.278312157556996        0.000000000000003        0.000000000000002        xy xz yz

Atoms

       1    1       1.833562353238714        0.352869239406113       19.600827461715802
       2    1       1.833562353238714        0.352869239406114       24.771809440403892
       3    1       1.833562353238715        0.352869239406114       29.971604074423819
       4    1       3.667124706477426        0.705738478812224       16.987695925576180
       5    1       3.667124706477427        0.705738478812225       22.187490559596110
       6    1       3.667124706477427        0.705738478812225       27.358472538284204
       7    1       4.278312157556997        2.470084675842782       19.600827461715802
       8    1       3.055937255397856        3.881561633467227       16.987695925576180
       9    1       4.278312157556998        2.470084675842782       24.771809440403892
      10    1       3.055937255397857        3.881561633467227       22.187490559596110
      11    1       4.278312157556998        2.470084675842782       29.971604074423819
      12    1       3.055937255397857        3.881561633467227       27.358472538284204
      13    1       7.334249412954851        1.411476957624447       19.600827461715802
      14    1       6.111874510795710        2.822953915248892       16.987695925576180
      15    1       7.334249412954852        1.411476957624447       24.771809440403892
      16    1       6.111874510795711        2.822953915248893       22.187490559596110
      17    1       7.334249412954853        1.411476957624448       29.971604074423819
      18    1       6.111874510795713        2.822953915248893       27.358472538284204
      19    1       9.167811766193566        1.764346197030557       16.987695925576180
      20    1       9.167811766193564        1.764346197030557       22.187490559596110
      21    1       9.167811766193564        1.764346197030557       27.358472538284204
      22    1       3.667124706477427        5.645907830497785       19.600827461715802
      23    1       3.667124706477428        5.645907830497785       24.771809440403892
      24    1       3.667124706477428        5.645907830497785       29.971604074423819
      25    1       6.723061961875281        4.587300112279451       19.600827461715802
      26    1       5.500687059716141        5.998777069903895       16.987695925576180
      27    1       6.723061961875283        4.587300112279451       24.771809440403892
      28    1       5.500687059716142        5.998777069903895       22.187490559596110
      29    1       6.723061961875282        4.587300112279451       29.971604074423819
      30    1       5.500687059716142        5.998777069903894       27.358472538284204
      31    1       9.778999217273133        3.528692394061116       19.600827461715802
      32    1       8.556624315113993        4.940169351685562       16.987695925576180
      33    1       9.778999217273133        3.528692394061117       24.771809440403892
      34    1       8.556624315113995        4.940169351685562       22.187490559596110
      35    1       9.778999217273135        3.528692394061117       29.971604074423819
      36    1       8.556624315113995        4.940169351685561       27.358472538284204
      37    1       9.167811766193566        6.704515548716119       19.600827461715802
      38    1       9.167811766193568        6.704515548716120       24.771809440403892
      39    1       9.167811766193569        6.704515548716120       29.971604074423819
      40    1      11.001374119432279        7.057384788122230       16.987695925576180
      41    1      11.001374119432279        7.057384788122230       22.187490559596110
      42    1      11.001374119432279        7.057384788122230       27.358472538284204
      43    1       6.723061961875278        0.352869239406112        3.947727461715800
      44    1       4.889499608636566        0.705738478812223        1.334595925576183
      45    1       6.723061961875280        0.352869239406113        9.118709440403890
      46    1       4.889499608636567        0.705738478812224        6.534390559596112
      47    1       6.723061961875281        0.352869239406112       14.318504074423819
      48    1       4.889499608636567        0.705738478812225       11.705372538284200
      49    1       7.945436864034423        1.764346197030558        1.334595925576183
      50    1       7.945436864034423        1.764346197030558        6.534390559596112
      51    1       7.945436864034422        1.764346197030559       11.705372538284200
      52    1       1.222374902159142        1.411476957624446        3.947727461715800
      53    1       1.222374902159143        1.411476957624446        9.118709440403890
      54    1       1.222374902159143        1.411476957624447       14.318504074423821
      55    1       4.278312157556996        2.470084675842780        3.947727461715800
      56    1       2.444749804318284        2.822953915248892        1.334595925576183
      57    1       4.278312157556996        2.470084675842781        9.118709440403890
      58    1       2.444749804318285        2.822953915248892        6.534390559596112
      59    1       4.278312157556996        2.470084675842781       14.318504074423819
      60    1       2.444749804318285        2.822953915248893       11.705372538284200
      61    1       7.334249412954852        3.528692394061117        3.947727461715800
      62    1       5.500687059716139        3.881561633467226        1.334595925576183
      63    1       7.334249412954853        3.528692394061117        9.118709440403890
      64    1       5.500687059716139        3.881561633467227        6.534390559596112
      65    1       7.334249412954851        3.528692394061117       14.318504074423819
      66    1       5.500687059716140        3.881561633467228       11.705372538284200
      67    1      10.390186668352705        4.587300112279449        3.947727461715800
      68    1       8.556624315113993        4.940169351685561        1.334595925576183
      69    1      10.390186668352706        4.587300112279449        9.118709440403890
      70    1       8.556624315113993        4.940169351685562        6.534390559596112
      71    1      10.390186668352708        4.587300112279449       14.318504074423819
      72    1       8.556624315113995        4.940169351685562       11.705372538284200
      73    1      11.612561570511847        5.998777069903896        1.334595925576183
      74    1      11.612561570511847        5.998777069903895        6.534390559596112
      75    1      11.612561570511847        5.998777069903896       11.705372538284200
      76    1       4.889499608636568        5.645907830497783        3.947727461715800
      77    1       4.889499608636569        5.645907830497785        9.118709440403890
      78    1       4.889499608636569        5.645907830497785       14.318504074423819
      79    1       7.945436864034422        6.704515548716117        3.947727461715800
      80    1       6.111874510795710        7.057384788122230        1.334595925576183
      81    1       7.945436864034422        6.704515548716117        9.118709440403890
      82    1       6.111874510795709        7.057384788122230        6.534390559596112
      83    1       7.945436864034423        6.704515548716119       14.318504074423819
      84    1       6.111874510795709        7.057384788122231       11.705372538284200
