ITEM: TIMESTEP
14
ITEM: NUMBER OF ATOMS
84
ITEM: BOX BOUNDS xy xz yz pp pp pp
0.0000000000000000e+000 1.2834936472557001e+001 4.2783121575569956e+000
0.0000000000000000e+000 7.4102540280000015e+000 2.9999999999999998e-015
0.0000000000000000e+000 3.1306200000000000e+001 2.0000000000000002e-015
ITEM: ATOMS id type x y z c_peatom c_datom[1] c_datom[2] c_datom[3] c_datom[4] c_voratom[1] c_voratom[2] 
    1     1         1.8348969482         0.3616589588        19.6194899923        -6.5912081187         0.0013345949         0.0087897194         0.0186625306         0.0206719704        23.2753171541    15 
    2     1         1.8371805609         0.3552035083        24.7714225269        -6.6369099165         0.0036182076         0.0023342689        -0.0003869135         0.0043231863        23.4241438202    16 
    3     1         1.8297400657         0.3469267425        29.8798057201        -6.5662530023        -0.0038222875        -0.0059424969        -0.0917983543         0.0920698702        24.2568112294    17 
    4     1         3.6536176708         0.7131500712        17.0032330701        -6.5622267415        -0.0135070356         0.0074115924         0.0155371445         0.0218809180        24.0025960018    13 
    5     1         3.6696991760         0.7069370650        22.1863469165        -6.6335814072         0.0025744695         0.0011985861        -0.0011436431         0.0030614411        23.3966310540    14 
    6     1         3.6851649648         0.7128195909        27.3666093891        -6.6018388748         0.0180402584         0.0070811121         0.0081368508         0.0210190726        23.4498762654    14 
    7     1         4.2783121575         2.4700846757        19.5857942387        -6.6288333847        -0.0000000000        -0.0000000001        -0.0150332230         0.0150332230        23.4480969053    15 
    8     1         3.0691094008         3.8895532733        17.0032330701        -6.5622267415         0.0131721454         0.0079916398         0.0155371445         0.0218809182        24.0025960018    13 
    9     1         4.2783121575         2.4700846757        24.7689102100        -6.6341216571        -0.0000000000        -0.0000000001        -0.0028992304         0.0028992304        23.3965340846    12 
   10     1         3.0556880269         3.8787327844        22.1863469165        -6.6335814073        -0.0002492285        -0.0028288491        -0.0011436431         0.0030614411        23.3966310540    14 
   11     1         4.2783121576         2.4700846757        30.0248639490        -6.6276077352        -0.0000000000        -0.0000000001         0.0532598746         0.0532598746        23.9954183197    12 
   12     1         3.0530495494         3.8623977554        27.3666093891        -6.6018388748        -0.0028877060        -0.0191638781         0.0081368508         0.0210190725        23.4498762654    14 
   13     1         7.3259699950         1.4082378908        19.6194899923        -6.5912081187        -0.0082794180        -0.0032390669         0.0186625306         0.0206719705        23.2753171540    13 
   14     1         6.1122094012         2.8075506829        17.0032330701        -6.5622267415         0.0003348904        -0.0154032323         0.0155371446         0.0218809182        24.0025960017    13 
   15     1         7.3304187727         1.4134432826        24.7714225269        -6.6369099165        -0.0038306402         0.0019663250        -0.0003869135         0.0043231864        23.4241438202    14 
   16     1         6.1095492699         2.8245841780        22.1863469165        -6.6335814072        -0.0023252409         0.0016302628        -0.0011436431         0.0030614411        23.3966310540    14 
   17     1         7.3413069098         1.4111380077        29.8798057202        -6.5662530022         0.0070574968        -0.0003389499        -0.0917983543         0.0920698702        24.2568112293    16 
   18     1         6.0967219586         2.8350366811        27.3666093891        -6.6018388748        -0.0151525522         0.0120827658         0.0081368508         0.0210190725        23.4498762653    14 
   19     1         9.1710469755         1.7580647505        17.0794942798        -6.5662530022         0.0032352093        -0.0062814466         0.0917983543         0.0920698702        24.2568112293    15 
   20     1         9.1675993336         1.7686467912        22.1878774731        -6.6369099165        -0.0002124326         0.0043005942         0.0003869135         0.0043231863        23.4241438202    14 
   21     1         9.1608669432         1.7698968499        27.3398100077        -6.5912081187        -0.0069448230         0.0055506528        -0.0186625306         0.0206719704        23.2753171541    13 
   22     1         3.6740695295         5.6403571777        19.6194899923        -6.5912081187         0.0069448230        -0.0055506528         0.0186625306         0.0206719704        23.2753171541    13 
   23     1         3.6673371390         5.6416072363        24.7714225269        -6.6369099165         0.0002124326        -0.0043005942        -0.0003869135         0.0043231863        23.4241438202    14 
   24     1         3.6638894972         5.6521892771        29.8798057202        -6.5662530022        -0.0032352093         0.0062814466        -0.0917983543         0.0920698702        24.2568112293    15 
   25     1         6.7382145141         4.5752173464        19.5926906109        -6.6018388748         0.0151525522        -0.0120827658        -0.0081368508         0.0210190725        23.4498762653    14 
   26     1         5.4936295629         5.9991160198        17.0794942798        -6.5662530022        -0.0070574968         0.0003389499         0.0917983543         0.0920698702        24.2568112293    16 
   27     1         6.7253872028         4.5856698495        24.7729530835        -6.6335814072         0.0023252409        -0.0016302628         0.0011436431         0.0030614411        23.3966310540    14 
   28     1         5.5045176999         5.9968107449        22.1878774731        -6.6369099165         0.0038306402        -0.0019663250         0.0003869135         0.0043231864        23.4241438202    14 
   29     1         6.7227270715         4.6027033446        29.9560669299        -6.5622267415        -0.0003348904         0.0154032323        -0.0155371446         0.0218809182        24.0025960017    13 
   30     1         5.5089664777         6.0020161368        27.3398100077        -6.5912081187         0.0082794180         0.0032390669        -0.0186625306         0.0206719705        23.2753171540    13 
   31     1         9.7818869233         3.5478562721        19.5926906109        -6.6018388748         0.0028877060         0.0191638781        -0.0081368508         0.0210190725        23.4498762654    14 
   32     1         8.5566243151         4.9401693518        16.9344360510        -6.6276077352         0.0000000000         0.0000000001        -0.0532598746         0.0532598746        23.9954183197    12 
   33     1         9.7792484457         3.5315212432        24.7729530835        -6.6335814073         0.0002492285         0.0028288491         0.0011436431         0.0030614411        23.3966310540    14 
   34     1         8.5566243151         4.9401693518        22.1903897900        -6.6341216571         0.0000000000         0.0000000001         0.0028992304         0.0028992304        23.3965340846    12 
   35     1         9.7658270719         3.5207007543        29.9560669299        -6.5622267415        -0.0131721454        -0.0079916398        -0.0155371445         0.0218809182        24.0025960018    13 
   36     1         8.5566243151         4.9401693518        27.3735057613        -6.6288333847         0.0000000000         0.0000000001         0.0150332230         0.0150332230        23.4480969053    15 
   37     1         9.1497715078         6.6974344366        19.5926906109        -6.6018388748        -0.0180402584        -0.0070811121        -0.0081368508         0.0210190726        23.4498762654    14 
   38     1         9.1652372967         6.7033169626        24.7729530835        -6.6335814072        -0.0025744695        -0.0011985861         0.0011436431         0.0030614411        23.3966310540    14 
   39     1         9.1813188018         6.6971039563        29.9560669299        -6.5622267415         0.0135070356        -0.0074115924        -0.0155371445         0.0218809180        24.0025960018    13 
   40     1        11.0051964070         7.0633272851        17.0794942799        -6.5662530023         0.0038222875         0.0059424969         0.0917983543         0.0920698702        24.2568112294    17 
   41     1        10.9977559118         7.0550505192        22.1878774731        -6.6369099165        -0.0036182076        -0.0023342689         0.0003869135         0.0043231863        23.4241438202    16 
   42     1        11.0000395245         7.0485950688        27.3398100077        -6.5912081187        -0.0013345949        -0.0087897194        -0.0186625306         0.0206719704        23.2753171541    15 
   43     1         6.7217273670         0.3616589588         3.9663899923        -6.5912081187        -0.0013345949         0.0087897194         0.0186625306         0.0206719704        23.2753171541    15 
   44     1         4.9030066443         0.7131500712         1.3501330701        -6.5622267415         0.0135070356         0.0074115924         0.0155371445         0.0218809180        24.0025960018    13 
   45     1         6.7194437543         0.3552035083         9.1183225269        -6.6369099165        -0.0036182076         0.0023342689        -0.0003869135         0.0043231863        23.4241438202    16 
   46     1         4.8869251391         0.7069370649         6.5332469165        -6.6335814072        -0.0025744695         0.0011985861        -0.0011436431         0.0030614411        23.3966310540    14 
   47     1         6.7268842494         0.3469267425        14.2267057201        -6.5662530023         0.0038222876        -0.0059424969        -0.0917983543         0.0920698702        24.2568112294    17 
   48     1         4.8714593503         0.7128195909        11.7135093891        -6.6018388748        -0.0180402584         0.0070811121         0.0081368508         0.0210190726        23.4498762654    14 
   49     1         7.9422016546         1.7580647504         1.4263942798        -6.5662530022        -0.0032352094        -0.0062814466         0.0917983543         0.0920698702        24.2568112293    15 
   50     1         7.9456492965         1.7686467912         6.5347774731        -6.6369099165         0.0002124325         0.0043005942         0.0003869135         0.0043231863        23.4241438202    14 
   51     1         7.9523816869         1.7698968498        11.6867100077        -6.5912081187         0.0069448229         0.0055506528        -0.0186625306         0.0206719704        23.2753171541    13 
   52     1         1.2306543202         1.4082378908         3.9663899923        -6.5912081187         0.0082794180        -0.0032390669         0.0186625306         0.0206719705        23.2753171540    13 
   53     1         1.2262055424         1.4134432826         9.1183225269        -6.6369099165         0.0038306402         0.0019663250        -0.0003869135         0.0043231864        23.4241438202    14 
   54     1         1.2153174054         1.4111380077        14.2267057202        -6.5662530022        -0.0070574968        -0.0003389499        -0.0917983543         0.0920698702        24.2568112293    16 
   55     1         4.2783121576         2.4700846757         3.9326942387        -6.6288333847         0.0000000001        -0.0000000001        -0.0150332230         0.0150332230        23.4480969053    15 
   56     1         2.4444149139         2.8075506829         1.3501330701        -6.5622267415        -0.0003348904        -0.0154032324         0.0155371446         0.0218809182        24.0025960017    13 
   57     1         4.2783121576         2.4700846757         9.1158102100        -6.6341216571         0.0000000001        -0.0000000001        -0.0028992304         0.0028992304        23.3965340846    12 
   58     1         2.4470750453         2.8245841780         6.5332469165        -6.6335814072         0.0023252409         0.0016302628        -0.0011436431         0.0030614411        23.3966310540    14 
   59     1         4.2783121576         2.4700846757        14.3717639490        -6.6276077352         0.0000000000        -0.0000000001         0.0532598746         0.0532598746        23.9954183197    12 
   60     1         2.4599023566         2.8350366811        11.7135093891        -6.6018388748         0.0151525522         0.0120827658         0.0081368508         0.0210190726        23.4498762653    14 
   61     1         7.3313617069         3.5478562721         3.9395906109        -6.6018388748        -0.0028877060         0.0191638781        -0.0081368508         0.0210190725        23.4498762654    14 
   62     1         5.4875149144         3.8895532732         1.3501330701        -6.5622267415        -0.0131721453         0.0079916398         0.0155371445         0.0218809181        24.0025960018    13 
   63     1         7.3340001844         3.5315212432         9.1198530835        -6.6335814073        -0.0002492285         0.0028288491         0.0011436431         0.0030614411        23.3966310540    14 
   64     1         5.5009362882         3.8787327844         6.5332469165        -6.6335814073         0.0002492285        -0.0028288491        -0.0011436431         0.0030614411        23.3966310540    14 
   65     1         7.3474215583         3.5207007543        14.3029669299        -6.5622267415         0.0131721453        -0.0079916398        -0.0155371445         0.0218809181        24.0025960018    13 
   66     1         5.5035747658         3.8623977554        11.7135093891        -6.6018388748         0.0028877060        -0.0191638781         0.0081368508         0.0210190725        23.4498762654    14 
   67     1        10.3750341161         4.5752173464         3.9395906109        -6.6018388748        -0.0151525522        -0.0120827658        -0.0081368508         0.0210190726        23.4498762653    14 
   68     1         8.5566243151         4.9401693518         1.2813360510        -6.6276077352        -0.0000000000         0.0000000001        -0.0532598746         0.0532598746        23.9954183197    12 
   69     1        10.3878614274         4.5856698495         9.1198530835        -6.6335814072        -0.0023252409        -0.0016302628         0.0011436431         0.0030614411        23.3966310540    14 
   70     1         8.5566243151         4.9401693518         6.5372897900        -6.6341216571        -0.0000000001         0.0000000001         0.0028992304         0.0028992304        23.3965340846    12 
   71     1        10.3905215587         4.6027033446        14.3029669299        -6.5622267415         0.0003348904         0.0154032324        -0.0155371446         0.0218809182        24.0025960017    13 
   72     1         8.5566243151         4.9401693518        11.7204057613        -6.6288333847        -0.0000000001         0.0000000001         0.0150332230         0.0150332230        23.4480969053    15 
   73     1        11.6196190673         5.9991160198         1.4263942798        -6.5662530022         0.0070574968         0.0003389499         0.0917983543         0.0920698702        24.2568112293    16 
   74     1        11.6087309303         5.9968107449         6.5347774731        -6.6369099165        -0.0038306402        -0.0019663250         0.0003869135         0.0043231864        23.4241438202    14 
   75     1        11.6042821525         6.0020161368        11.6867100077        -6.5912081187        -0.0082794180         0.0032390669        -0.0186625306         0.0206719705        23.2753171540    13 
   76     1         4.8825547857         5.6403571777         3.9663899923        -6.5912081187        -0.0069448229        -0.0055506528         0.0186625306         0.0206719704        23.2753171541    13 
   77     1         4.8892871762         5.6416072363         9.1183225269        -6.6369099165        -0.0002124325        -0.0043005942        -0.0003869135         0.0043231863        23.4241438202    14 
   78     1         4.8927348180         5.6521892771        14.2267057202        -6.5662530022         0.0032352094         0.0062814466        -0.0917983543         0.0920698702        24.2568112293    15 
   79     1         7.9634771224         6.6974344366         3.9395906109        -6.6018388748         0.0180402584        -0.0070811121        -0.0081368508         0.0210190726        23.4498762654    14 
   80     1         6.1080522232         7.0633272851         1.4263942799        -6.5662530023        -0.0038222876         0.0059424969         0.0917983543         0.0920698702        24.2568112294    17 
   81     1         7.9480113336         6.7033169626         9.1198530835        -6.6335814072         0.0025744695        -0.0011985861         0.0011436431         0.0030614411        23.3966310540    14 
   82     1         6.1154927184         7.0550505192         6.5347774731        -6.6369099165         0.0036182076        -0.0023342689         0.0003869135         0.0043231863        23.4241438202    16 
   83     1         7.9319298284         6.6971039563        14.3029669299        -6.5622267415        -0.0135070356        -0.0074115924        -0.0155371445         0.0218809180        24.0025960018    13 
   84     1         6.1132091057         7.0485950688        11.6867100077        -6.5912081187         0.0013345949        -0.0087897194        -0.0186625306         0.0206719704        23.2753171541    15 
