ITEM: TIMESTEP
0
ITEM: NUMBER OF ATOMS
84
ITEM: BOX BOUNDS xy xz yz pp pp pp
0.0000000000000000e+000 1.2834936472557001e+001 4.2783121575569956e+000
0.0000000000000000e+000 7.4102540280000015e+000 2.9999999999999998e-015
0.0000000000000000e+000 3.1306200000000000e+001 2.0000000000000002e-015
ITEM: ATOMS id type x y z c_peatom c_datom[1] c_datom[2] c_datom[3] c_datom[4] c_voratom[1] c_voratom[2] 
    1     1         1.8335623532         0.3528692394        19.6008274617        -6.6085317579         0.0000000000         0.0000000000         0.0000000000         0.0000000000        23.5501520974    14 
    2     1         1.8335623532         0.3528692394        24.7718094404        -6.6322337504         0.0000000000         0.0000000000         0.0000000000         0.0000000000        23.4196580177    14 
    3     1         1.8335623532         0.3528692394        29.9716040744        -6.5011087491         0.0000000000         0.0000000000         0.0000000000         0.0000000000        23.9133653742    15 
    4     1         3.6671247065         0.7057384788        16.9876959256        -6.5651763518         0.0000000000         0.0000000000         0.0000000000         0.0000000000        23.9520997689    14 
    5     1         3.6671247065         0.7057384788        22.1874905596        -6.6322337504         0.0000000000         0.0000000000         0.0000000000         0.0000000000        23.4196580178    14 
    6     1         3.6671247065         0.7057384788        27.3584725383        -6.6085317579         0.0000000000         0.0000000000         0.0000000000         0.0000000000        23.5501520974    14 
    7     1         4.2783121576         2.4700846758        19.6008274617        -6.6291873499         0.0000000000         0.0000000000         0.0000000000         0.0000000000        23.5501520959    14 
    8     1         3.0559372554         3.8815616335        16.9876959256        -6.5651763516         0.0000000000         0.0000000000         0.0000000000         0.0000000000        23.9520997658    13 
    9     1         4.2783121576         2.4700846758        24.7718094404        -6.6322337503         0.0000000000         0.0000000000         0.0000000000         0.0000000000        23.4196580162    14 
   10     1         3.0559372554         3.8815616335        22.1874905596        -6.6322337503         0.0000000000         0.0000000000         0.0000000000         0.0000000000        23.4196580149    12 
   11     1         4.2783121576         2.4700846758        29.9716040744        -6.6346765113         0.0000000000         0.0000000000         0.0000000000         0.0000000000        23.8711096694    13 
   12     1         3.0559372554         3.8815616335        27.3584725383        -6.6085317578         0.0000000000         0.0000000000         0.0000000000         0.0000000000        23.5501520946    12 
   13     1         7.3342494130         1.4114769576        19.6008274617        -6.6085317579         0.0000000000         0.0000000000         0.0000000000         0.0000000000        23.5501520974    14 
   14     1         6.1118745108         2.8229539152        16.9876959256        -6.5651763517         0.0000000000         0.0000000000         0.0000000000         0.0000000000        23.9520997673    13 
   15     1         7.3342494130         1.4114769576        24.7718094404        -6.6322337503         0.0000000000         0.0000000000         0.0000000000         0.0000000000        23.4196580177    14 
   16     1         6.1118745108         2.8229539152        22.1874905596        -6.6322337503         0.0000000000         0.0000000000         0.0000000000         0.0000000000        23.4196580163    12 
   17     1         7.3342494130         1.4114769576        29.9716040744        -6.5011087490         0.0000000000         0.0000000000         0.0000000000         0.0000000000        23.9133653738    15 
   18     1         6.1118745108         2.8229539152        27.3584725383        -6.6085317579         0.0000000000         0.0000000000         0.0000000000         0.0000000000        23.5501520960    12 
   19     1         9.1678117662         1.7643461970        16.9876959256        -6.5011087489         0.0000000000         0.0000000000         0.0000000000         0.0000000000        23.9133653728    14 
   20     1         9.1678117662         1.7643461970        22.1874905596        -6.6322337503        -0.0000000000         0.0000000000         0.0000000000         0.0000000000        23.4196580163    14 
   21     1         9.1678117662         1.7643461970        27.3584725383        -6.6085317579        -0.0000000000         0.0000000000         0.0000000000         0.0000000000        23.5501520960    14 
   22     1         3.6671247065         5.6459078305        19.6008274617        -6.6085317579         0.0000000000        -0.0000000000         0.0000000000         0.0000000000        23.5501520960    14 
   23     1         3.6671247065         5.6459078305        24.7718094404        -6.6322337503        -0.0000000000         0.0000000000         0.0000000000         0.0000000000        23.4196580163    14 
   24     1         3.6671247065         5.6459078305        29.9716040744        -6.5011087489         0.0000000000         0.0000000000         0.0000000000         0.0000000000        23.9133653728    14 
   25     1         6.7230619619         4.5873001123        19.6008274617        -6.6085317579         0.0000000000        -0.0000000000         0.0000000000         0.0000000000        23.5501520960    12 
   26     1         5.5006870597         5.9987770699        16.9876959256        -6.5011087490         0.0000000000         0.0000000000         0.0000000000         0.0000000000        23.9133653738    15 
   27     1         6.7230619619         4.5873001123        24.7718094404        -6.6322337503         0.0000000000         0.0000000000         0.0000000000         0.0000000000        23.4196580163    12 
   28     1         5.5006870597         5.9987770699        22.1874905596        -6.6322337503         0.0000000000         0.0000000000         0.0000000000         0.0000000000        23.4196580177    14 
   29     1         6.7230619619         4.5873001123        29.9716040744        -6.5651763517         0.0000000000         0.0000000000         0.0000000000         0.0000000000        23.9520997673    13 
   30     1         5.5006870597         5.9987770699        27.3584725383        -6.6085317579         0.0000000000         0.0000000000         0.0000000000         0.0000000000        23.5501520974    14 
   31     1         9.7789992173         3.5286923941        19.6008274617        -6.6085317578         0.0000000000         0.0000000000         0.0000000000         0.0000000000        23.5501520946    12 
   32     1         8.5566243151         4.9401693517        16.9876959256        -6.6346765113         0.0000000000         0.0000000000         0.0000000000         0.0000000000        23.8711096694    13 
   33     1         9.7789992173         3.5286923941        24.7718094404        -6.6322337503         0.0000000000         0.0000000000         0.0000000000         0.0000000000        23.4196580149    12 
   34     1         8.5566243151         4.9401693517        22.1874905596        -6.6322337503         0.0000000000         0.0000000000         0.0000000000         0.0000000000        23.4196580162    14 
   35     1         9.7789992173         3.5286923941        29.9716040744        -6.5651763516         0.0000000000         0.0000000000         0.0000000000         0.0000000000        23.9520997658    13 
   36     1         8.5566243151         4.9401693517        27.3584725383        -6.6291873499         0.0000000000         0.0000000000         0.0000000000         0.0000000000        23.5501520959    14 
   37     1         9.1678117662         6.7045155487        19.6008274617        -6.6085317579         0.0000000000         0.0000000000         0.0000000000         0.0000000000        23.5501520974    14 
   38     1         9.1678117662         6.7045155487        24.7718094404        -6.6322337504        -0.0000000000         0.0000000000         0.0000000000         0.0000000000        23.4196580178    14 
   39     1         9.1678117662         6.7045155487        29.9716040744        -6.5651763518         0.0000000000         0.0000000000         0.0000000000         0.0000000000        23.9520997689    14 
   40     1        11.0013741194         7.0573847881        16.9876959256        -6.5011087491         0.0000000000         0.0000000000         0.0000000000         0.0000000000        23.9133653742    15 
   41     1        11.0013741194         7.0573847881        22.1874905596        -6.6322337504         0.0000000000         0.0000000000         0.0000000000         0.0000000000        23.4196580177    14 
   42     1        11.0013741194         7.0573847881        27.3584725383        -6.6085317579         0.0000000000         0.0000000000         0.0000000000         0.0000000000        23.5501520974    14 
   43     1         6.7230619619         0.3528692394         3.9477274617        -6.6085317579        -0.0000000000         0.0000000000         0.0000000000         0.0000000000        23.5501520975    14 
   44     1         4.8894996086         0.7057384788         1.3345959256        -6.5651763518         0.0000000000         0.0000000000         0.0000000000         0.0000000000        23.9520997691    14 
   45     1         6.7230619619         0.3528692394         9.1187094404        -6.6322337504        -0.0000000000         0.0000000000         0.0000000000         0.0000000000        23.4196580178    14 
   46     1         4.8894996086         0.7057384788         6.5343905596        -6.6322337504         0.0000000000         0.0000000000         0.0000000000         0.0000000000        23.4196580179    14 
   47     1         6.7230619619         0.3528692394        14.3185040744        -6.5011087491         0.0000000000         0.0000000000         0.0000000000         0.0000000000        23.9133653742    15 
   48     1         4.8894996086         0.7057384788        11.7053725383        -6.6085317579         0.0000000000         0.0000000000         0.0000000000         0.0000000000        23.5501520976    14 
   49     1         7.9454368640         1.7643461970         1.3345959256        -6.5011087489         0.0000000000         0.0000000000         0.0000000000         0.0000000000        23.9133653728    13 
   50     1         7.9454368640         1.7643461970         6.5343905596        -6.6322337503         0.0000000000         0.0000000000         0.0000000000         0.0000000000        23.4196580162    12 
   51     1         7.9454368640         1.7643461970        11.7053725383        -6.6085317578         0.0000000000         0.0000000000         0.0000000000         0.0000000000        23.5501520959    12 
   52     1         1.2223749022         1.4114769576         3.9477274617        -6.6085317579         0.0000000000         0.0000000000         0.0000000000         0.0000000000        23.5501520971    14 
   53     1         1.2223749022         1.4114769576         9.1187094404        -6.6322337503         0.0000000000         0.0000000000         0.0000000000         0.0000000000        23.4196580174    14 
   54     1         1.2223749022         1.4114769576        14.3185040744        -6.5011087490         0.0000000000         0.0000000000         0.0000000000         0.0000000000        23.9133653736    15 
   55     1         4.2783121576         2.4700846758         3.9477274617        -6.6291873499         0.0000000000         0.0000000000         0.0000000000         0.0000000000        23.5501520959    12 
   56     1         2.4447498043         2.8229539152         1.3345959256        -6.5651763517         0.0000000000         0.0000000000         0.0000000000         0.0000000000        23.9520997668    14 
   57     1         4.2783121576         2.4700846758         9.1187094404        -6.6322337503         0.0000000000         0.0000000000         0.0000000000         0.0000000000        23.4196580162    12 
   58     1         2.4447498043         2.8229539152         6.5343905596        -6.6322337503         0.0000000000         0.0000000000         0.0000000000         0.0000000000        23.4196580159    14 
   59     1         4.2783121576         2.4700846758        14.3185040744        -6.6346765113         0.0000000000         0.0000000000         0.0000000000         0.0000000000        23.8711096694    12 
   60     1         2.4447498043         2.8229539152        11.7053725383        -6.6085317578         0.0000000000         0.0000000000         0.0000000000         0.0000000000        23.5501520956    14 
   61     1         7.3342494130         3.5286923941         3.9477274617        -6.6085317579         0.0000000000         0.0000000000         0.0000000000         0.0000000000        23.5501520951    14 
   62     1         5.5006870597         3.8815616335         1.3345959256        -6.5651763517         0.0000000000         0.0000000000         0.0000000000         0.0000000000        23.9520997663    14 
   63     1         7.3342494130         3.5286923941         9.1187094404        -6.6322337503         0.0000000000         0.0000000000         0.0000000000         0.0000000000        23.4196580154    14 
   64     1         5.5006870597         3.8815616335         6.5343905596        -6.6322337503         0.0000000000         0.0000000000         0.0000000000         0.0000000000        23.4196580154    14 
   65     1         7.3342494130         3.5286923941        14.3185040744        -6.5651763517         0.0000000000         0.0000000000         0.0000000000         0.0000000000        23.9520997663    14 
   66     1         5.5006870597         3.8815616335        11.7053725383        -6.6085317579         0.0000000000         0.0000000000         0.0000000000         0.0000000000        23.5501520951    14 
   67     1        10.3901866684         4.5873001123         3.9477274617        -6.6085317578         0.0000000000         0.0000000000         0.0000000000         0.0000000000        23.5501520956    14 
   68     1         8.5566243151         4.9401693517         1.3345959256        -6.6346765113         0.0000000000         0.0000000000         0.0000000000         0.0000000000        23.8711096694    12 
   69     1        10.3901866684         4.5873001123         9.1187094404        -6.6322337503        -0.0000000000         0.0000000000         0.0000000000         0.0000000000        23.4196580159    14 
   70     1         8.5566243151         4.9401693517         6.5343905596        -6.6322337503         0.0000000000        -0.0000000000         0.0000000000         0.0000000000        23.4196580162    12 
   71     1        10.3901866684         4.5873001123        14.3185040744        -6.5651763517         0.0000000000         0.0000000000         0.0000000000         0.0000000000        23.9520997668    14 
   72     1         8.5566243151         4.9401693517        11.7053725383        -6.6291873499         0.0000000000         0.0000000000         0.0000000000         0.0000000000        23.5501520959    12 
   73     1        11.6125615705         5.9987770699         1.3345959256        -6.5011087490         0.0000000000         0.0000000000         0.0000000000         0.0000000000        23.9133653736    15 
   74     1        11.6125615705         5.9987770699         6.5343905596        -6.6322337503         0.0000000000         0.0000000000         0.0000000000         0.0000000000        23.4196580174    14 
   75     1        11.6125615705         5.9987770699        11.7053725383        -6.6085317579         0.0000000000         0.0000000000         0.0000000000         0.0000000000        23.5501520971    14 
   76     1         4.8894996086         5.6459078305         3.9477274617        -6.6085317578         0.0000000000         0.0000000000         0.0000000000         0.0000000000        23.5501520959    12 
   77     1         4.8894996086         5.6459078305         9.1187094404        -6.6322337503         0.0000000000         0.0000000000         0.0000000000         0.0000000000        23.4196580162    12 
   78     1         4.8894996086         5.6459078305        14.3185040744        -6.5011087489         0.0000000000         0.0000000000         0.0000000000         0.0000000000        23.9133653728    13 
   79     1         7.9454368640         6.7045155487         3.9477274617        -6.6085317579         0.0000000000         0.0000000000         0.0000000000         0.0000000000        23.5501520976    14 
   80     1         6.1118745108         7.0573847881         1.3345959256        -6.5011087491        -0.0000000000         0.0000000000         0.0000000000         0.0000000000        23.9133653742    15 
   81     1         7.9454368640         6.7045155487         9.1187094404        -6.6322337504         0.0000000000         0.0000000000         0.0000000000         0.0000000000        23.4196580179    14 
   82     1         6.1118745108         7.0573847881         6.5343905596        -6.6322337504        -0.0000000000        -0.0000000000         0.0000000000         0.0000000000        23.4196580178    14 
   83     1         7.9454368640         6.7045155487        14.3185040744        -6.5651763518         0.0000000000         0.0000000000         0.0000000000         0.0000000000        23.9520997691    14 
   84     1         6.1118745108         7.0573847881        11.7053725383        -6.6085317579         0.0000000000         0.0000000000         0.0000000000         0.0000000000        23.5501520975    14 
