Header

156 atoms
1 atom types

0.0   11.660713380 xlo xhi
0.0   10.098474013 ylo yhi
0.0   31.286200000 zlo zhi

5.830356689989047        0.000000000000003        0.000000000000003        xy xz yz

Atoms

       1    1       1.793955904612015        0.517870462221034       19.586030630934747
       2    1       1.793955904612016        0.517870462221035       24.756793811043629
       3    1       1.793955904612016        0.517870462221035       29.954448802795564
       4    1       3.587911809224030        1.035740924442066       16.974851197204440
       5    1       3.587911809224030        1.035740924442066       22.172506188956369
       6    1       3.587911809224031        1.035740924442067       27.343269369065254
       7    1       6.727334642295056        0.258935231110517       16.974851197204440
       8    1       6.727334642295054        0.258935231110518       22.172506188956369
       9    1       6.727334642295057        0.258935231110518       27.343269369065254
      10    1       4.036400785377033        2.848287542215679       19.586030630934747
      11    1       2.690933856918023        4.142963697768259       16.974851197204440
      12    1       4.036400785377033        2.848287542215680       24.756793811043629
      13    1       2.690933856918023        4.142963697768260       22.172506188956369
      14    1       4.036400785377033        2.848287542215679       29.954448802795564
      15    1       2.690933856918024        4.142963697768261       27.343269369065254
      16    1       7.175823618448057        2.071481848884130       19.586030630934747
      17    1       5.830356689989048        3.366158004436711       16.974851197204440
      18    1       7.175823618448057        2.071481848884131       24.756793811043629
      19    1       5.830356689989048        3.366158004436711       22.172506188956369
      20    1       7.175823618448057        2.071481848884131       29.954448802795564
      21    1       5.830356689989050        3.366158004436711       27.343269369065254
      22    1      10.315246451519082        1.294676155552582       19.586030630934747
      23    1       8.969779523060074        2.589352311105162       16.974851197204440
      24    1      10.315246451519082        1.294676155552583       24.756793811043629
      25    1       8.969779523060074        2.589352311105163       22.172506188956369
      26    1      10.315246451519082        1.294676155552583       29.954448802795564
      27    1       8.969779523060074        2.589352311105163       27.343269369065254
      28    1      12.109202356131094        1.812546617773614       16.974851197204440
      29    1      12.109202356131092        1.812546617773615       22.172506188956369
      30    1      12.109202356131092        1.812546617773614       27.343269369065254
      31    1       6.278845666142050        5.178704622210327       19.586030630934747
      32    1       4.933378737683042        6.473380777762906       16.974851197204440
      33    1       6.278845666142053        5.178704622210327       24.756793811043629
      34    1       4.933378737683041        6.473380777762904       22.172506188956369
      35    1       6.278845666142053        5.178704622210328       29.954448802795564
      36    1       4.933378737683042        6.473380777762905       27.343269369065254
      37    1       9.418268499213076        4.401898928878778       19.586030630934747
      38    1       8.072801570754065        5.696575084431357       16.974851197204440
      39    1       9.418268499213076        4.401898928878778       24.756793811043629
      40    1       8.072801570754066        5.696575084431357       22.172506188956369
      41    1       9.418268499213074        4.401898928878778       29.954448802795564
      42    1       8.072801570754066        5.696575084431358       27.343269369065254
      43    1      12.557691332284099        3.625093235547228       19.586030630934747
      44    1      11.212224403825090        4.919769391099808       16.974851197204440
      45    1      12.557691332284099        3.625093235547229       24.756793811043629
      46    1      11.212224403825088        4.919769391099809       22.172506188956369
      47    1      12.557691332284099        3.625093235547230       29.954448802795564
      48    1      11.212224403825088        4.919769391099810       27.343269369065254
      49    1       5.381867713836045        8.285927395536520       19.586030630934747
      50    1       5.381867713836045        8.285927395536522       24.756793811043629
      51    1       5.381867713836046        8.285927395536522       29.954448802795564
      52    1       8.521290546907068        7.509121702204970       19.586030630934747
      53    1       7.175823618448060        8.803797857757548       16.974851197204440
      54    1       8.521290546907069        7.509121702204971       24.756793811043629
      55    1       7.175823618448060        8.803797857757548       22.172506188956369
      56    1       8.521290546907069        7.509121702204972       29.954448802795564
      57    1       7.175823618448062        8.803797857757550       27.343269369065254
      58    1      11.660713379978096        6.732316008873422       19.586030630934747
      59    1      10.315246451519082        8.026992164426003       16.974851197204440
      60    1      11.660713379978100        6.732316008873425       24.756793811043629
      61    1      10.315246451519082        8.026992164426003       22.172506188956369
      62    1      11.660713379978100        6.732316008873426       29.954448802795564
      63    1      10.315246451519084        8.026992164426005       27.343269369065254
      64    1      14.800136213049122        5.955510315541873       19.586030630934747
      65    1      13.454669284590107        7.250186471094453       16.974851197204440
      66    1      14.800136213049122        5.955510315541876       24.756793811043629
      67    1      13.454669284590105        7.250186471094452       22.172506188956369
      68    1      14.800136213049122        5.955510315541876       29.954448802795564
      69    1      13.454669284590105        7.250186471094454       27.343269369065254
      70    1      10.763735427672090        9.839538782199613       19.586030630934747
      71    1      10.763735427672090        9.839538782199615       24.756793811043629
      72    1      10.763735427672088        9.839538782199615       29.954448802795564
      73    1      13.903158260743112        9.062733088868066       19.586030630934747
      74    1      13.903158260743114        9.062733088868068       24.756793811043629
      75    1      13.903158260743114        9.062733088868068       29.954448802795564
      76    1      15.697114165355124        9.580603551089101       16.974851197204440
      77    1      15.697114165355122        9.580603551089101       22.172506188956369
      78    1      15.697114165355122        9.580603551089103       27.343269369065254
      79    1       4.933378737683038        0.258935231110516        1.331751197204437
      80    1       4.933378737683038        0.258935231110517        6.529406188956370
      81    1       4.933378737683039        0.258935231110517       11.700169369065256
      82    1       9.866757475366079        0.517870462221032        3.942930630934747
      83    1       8.072801570754063        1.035740924442066        1.331751197204437
      84    1       9.866757475366079        0.517870462221033        9.113693811043632
      85    1       8.072801570754061        1.035740924442066        6.529406188956370
      86    1       9.866757475366079        0.517870462221034       14.311348802795562
      87    1       8.072801570754065        1.035740924442067       11.700169369065256
      88    1      11.212224403825090        1.812546617773614        1.331751197204437
      89    1      11.212224403825090        1.812546617773615        6.529406188956370
      90    1      11.212224403825092        1.812546617773615       11.700169369065256
      91    1       1.345466928459010        1.294676155552581        3.942930630934747
      92    1       1.345466928459011        1.294676155552581        9.113693811043632
      93    1       1.345466928459012        1.294676155552582       14.311348802795564
      94    1       4.484889761530034        2.071481848884130        3.942930630934747
      95    1       2.690933856918021        2.589352311105162        1.331751197204437
      96    1       4.484889761530036        2.071481848884130        9.113693811043632
      97    1       2.690933856918021        2.589352311105162        6.529406188956370
      98    1       4.484889761530035        2.071481848884131       14.311348802795562
      99    1       2.690933856918021        2.589352311105162       11.700169369065256
     100    1       7.624312594601061        2.848287542215679        3.942930630934747
     101    1       5.830356689989044        3.366158004436711        1.331751197204437
     102    1       7.624312594601062        2.848287542215680        9.113693811043632
     103    1       5.830356689989045        3.366158004436711        6.529406188956370
     104    1       7.624312594601061        2.848287542215680       14.311348802795562
     105    1       5.830356689989046        3.366158004436713       11.700169369065256
     106    1      10.763735427672083        3.625093235547226        3.942930630934747
     107    1       8.969779523060069        4.142963697768260        1.331751197204437
     108    1      10.763735427672083        3.625093235547227        9.113693811043632
     109    1       8.969779523060069        4.142963697768261        6.529406188956370
     110    1      10.763735427672085        3.625093235547227       14.311348802795562
     111    1       8.969779523060073        4.142963697768261       11.700169369065256
     112    1      13.903158260743114        4.401898928878776        3.942930630934747
     113    1      12.109202356131096        4.919769391099808        1.331751197204437
     114    1      13.903158260743112        4.401898928878778        9.113693811043632
     115    1      12.109202356131096        4.919769391099808        6.529406188956370
     116    1      13.903158260743114        4.401898928878778       14.311348802795562
     117    1      12.109202356131098        4.919769391099809       11.700169369065256
     118    1       5.381867713836042        5.178704622210323        3.942930630934747
     119    1       3.587911809224028        5.696575084431355        1.331751197204437
     120    1       5.381867713836043        5.178704622210324        9.113693811043632
     121    1       3.587911809224028        5.696575084431356        6.529406188956370
     122    1       5.381867713836043        5.178704622210324       14.311348802795562
     123    1       3.587911809224030        5.696575084431358       11.700169369065256
     124    1       8.521290546907066        5.955510315541874        3.942930630934747
     125    1       6.727334642295054        6.473380777762905        1.331751197204437
     126    1       8.521290546907068        5.955510315541873        9.113693811043632
     127    1       6.727334642295053        6.473380777762905        6.529406188956370
     128    1       8.521290546907069        5.955510315541875       14.311348802795562
     129    1       6.727334642295053        6.473380777762906       11.700169369065256
     130    1      11.660713379978093        6.732316008873423        3.942930630934747
     131    1       9.866757475366075        7.250186471094452        1.331751197204437
     132    1      11.660713379978093        6.732316008873424        9.113693811043632
     133    1       9.866757475366075        7.250186471094452        6.529406188956370
     134    1      11.660713379978093        6.732316008873424       14.311348802795562
     135    1       9.866757475366077        7.250186471094453       11.700169369065256
     136    1      14.800136213049118        7.509121702204968        3.942930630934747
     137    1      13.006180308437099        8.026992164426002        1.331751197204437
     138    1      14.800136213049116        7.509121702204970        9.113693811043632
     139    1      13.006180308437099        8.026992164426002        6.529406188956370
     140    1      14.800136213049118        7.509121702204970       14.311348802795562
     141    1      13.006180308437100        8.026992164426003       11.700169369065256
     142    1      16.145603141508126        8.803797857757548        1.331751197204437
     143    1      16.145603141508126        8.803797857757548        6.529406188956370
     144    1      16.145603141508122        8.803797857757553       11.700169369065256
     145    1       6.278845666142047        8.285927395536518        3.942930630934747
     146    1       6.278845666142047        8.285927395536516        9.113693811043632
     147    1       6.278845666142049        8.285927395536522       14.311348802795564
     148    1       9.418268499213074        9.062733088868068        3.942930630934747
     149    1       7.624312594601059        9.580603551089100        1.331751197204437
     150    1       9.418268499213074        9.062733088868068        9.113693811043632
     151    1       7.624312594601059        9.580603551089100        6.529406188956370
     152    1       9.418268499213076        9.062733088868070       14.311348802795562
     153    1       7.624312594601059        9.580603551089101       11.700169369065256
     154    1      12.557691332284101        9.839538782199618        3.942930630934747
     155    1      12.557691332284101        9.839538782199618        9.113693811043632
     156    1      12.557691332284103        9.839538782199620       14.311348802795562
