ITEM: TIMESTEP
20
ITEM: NUMBER OF ATOMS
156
ITEM: BOX BOUNDS xy xz yz pp pp pp
0.0000000000000000e+000 1.7491070069989053e+001 5.8303566899890473e+000
0.0000000000000000e+000 1.0098474013000004e+001 2.9999999999999998e-015
0.0000000000000000e+000 3.1286200000000001e+001 2.9999999999999998e-015
ITEM: ATOMS id type x y z c_peatom c_datom[1] c_datom[2] c_datom[3] c_datom[4] c_voratom[1] c_voratom[2] 
    1     1         1.7870126491         0.5366532755        19.5754248086        -6.6124351792        -0.0069432555         0.0187828133        -0.0106058223         0.0226602370        23.4531027678    13 
    2     1         1.7899207749         0.5201787640        24.7584551891        -6.6324307952        -0.0040351297         0.0023083017         0.0016613781         0.0049366695        23.4007395019    13 
    3     1         1.7884691784         0.5702358752        29.9287807658        -6.5585131319        -0.0054867262         0.0523654130        -0.0256680370         0.0585754963        23.9305747536    14 
    4     1         3.5535517151         1.0310037180        16.9341589074        -6.5794147301        -0.0343600942        -0.0047372065        -0.0406922898         0.0534688661        23.9850155849    13 
    5     1         3.5861014745         1.0390648258        22.1758542572        -6.6361870143        -0.0018103347         0.0033239014         0.0033480683         0.0050532359        23.4447015834    16 
    6     1         3.5849196517         1.0363494709        27.3205608817        -6.5878346423        -0.0029921575         0.0006085464        -0.0227084874         0.0229128509        23.2809633754    13 
    7     1         6.7213494254         0.2396614161        17.0884635818        -6.5827675160        -0.0059852169        -0.0192738150         0.1136123846         0.1153909732        24.3297457236    17 
    8     1         6.7249566048         0.2636190178        22.1619689745        -6.6370409880        -0.0023780375         0.0046837867        -0.0105372145         0.0117739462        23.4630748900    14 
    9     1         6.7439288836         0.2516095854        27.3385822155        -6.5949912459         0.0165942413        -0.0073256457        -0.0046871536         0.0187350831        23.3968434121    14 
   10     1         4.0517491070         2.8330769309        19.5592812990        -6.6079565388         0.0153483216        -0.0152106113        -0.0267493319         0.0343869224        23.4797415131    14 
   11     1         2.6772348518         4.1577839552        17.0884635818        -6.5827675160        -0.0136990052         0.0148202575         0.1136123846         0.1153909732        24.3297457236    17 
   12     1         4.0343500926         2.8510617873        24.7493636857        -6.6338309887        -0.0020506928         0.0027742450        -0.0074301254         0.0081919802        23.3968176981    13 
   13     1         2.6961791537         4.1426812454        22.1619689745        -6.6370409880         0.0052452968        -0.0002824524        -0.0105372145         0.0117739461        23.4630748900    14 
   14     1         4.0559334328         2.8410407230        29.9012937152        -6.5518465013         0.0195326474        -0.0072468192        -0.0531550876         0.0570920663        23.7853652350    13 
   15     1         2.6762925408         4.1322554861        27.3385822155        -6.5949912459        -0.0146413161        -0.0107082117        -0.0046871536         0.0187350832        23.3968434121    14 
   16     1         7.1813222336         2.0923791911        19.5592812990        -6.6079565388         0.0054986151         0.0208973422        -0.0267493319         0.0343869225        23.4797415131    14 
   17     1         5.8303566900         3.3661580045        16.9051140519        -6.6415202304        -0.0000000000         0.0000000000        -0.0697371453         0.0697371453        24.1867719105    12 
   18     1         7.1744463982         2.0683187745        24.7493636857        -6.6338309887        -0.0013772202        -0.0031630744        -0.0074301254         0.0081919801        23.3968176981    13 
   19     1         5.8303566900         3.3661580045        22.1634805689        -6.6345888897        -0.0000000000         0.0000000000        -0.0090256201         0.0090256201        23.4434289322    12 
   20     1         7.1723332243         2.0920210275        29.9012937152        -6.5518465013        -0.0034903941         0.0205391786        -0.0531550876         0.0570920664        23.7853652351    13 
   21     1         5.8303566900         3.3661580045        27.3262783084        -6.6278374643        -0.0000000000         0.0000000000        -0.0169910607         0.0169910607        23.3595762679    18 
   22     1        10.3024516860         1.2792717134        19.5754248086        -6.6124351792        -0.0127947655        -0.0154044421        -0.0106058223         0.0226602367        23.4531027678    13 
   23     1         8.9910621114         2.5619642001        16.9341589074        -6.5794147302         0.0212825883        -0.0273881110        -0.0406922898         0.0534688661        23.9850155849    13 
   24     1        10.3152649686         1.2900274800        24.7584551891        -6.6324307952         0.0000185171        -0.0046486755         0.0016613781         0.0049366693        23.4007395019    13 
   25     1         8.9678061074         2.5861225647        22.1758542572        -6.6361870143        -0.0019734156        -0.0032297464         0.0033480683         0.0050532358        23.4447015834    16 
   26     1        10.2726400368         1.2637418050        29.9287807658        -6.5585131319        -0.0426064147        -0.0309343506        -0.0256680370         0.0585754961        23.9305747536    14 
   27     1         8.9707485852         2.5864567536        27.3205608817        -6.5878346423         0.0009690622        -0.0028955575        -0.0227084874         0.0229128509        23.2809633754    13 
   28     1        12.0611092152         1.8339776800        17.0005192342        -6.5585131319        -0.0480931409         0.0214310622         0.0256680370         0.0585754962        23.9305747536    16 
   29     1        12.1051857435         1.8102062438        22.1708448109        -6.6324307952        -0.0040166127        -0.0023403740        -0.0016613781         0.0049366694        23.4007395019    15 
   30     1        12.0894643350         1.8159249887        27.3538751914        -6.6124351792        -0.0197380211         0.0033783710         0.0106058223         0.0226602368        23.4531027678    15 
   31     1         6.2579987295         5.1730178915        19.5592812990        -6.6079565388        -0.0208469367        -0.0056867307        -0.0267493319         0.0343869224        23.4797415131    14 
   32     1         4.9464562435         6.5055060954        16.9341589074        -6.5794147301         0.0130775058         0.0321253177        -0.0406922898         0.0534688661        23.9850155849    13 
   33     1         6.2822735792         5.1790934518        24.7493636857        -6.6338309887         0.0034279130         0.0003888296        -0.0074301254         0.0081919802        23.3968176981    13 
   34     1         4.9371624880         6.4732866229        22.1758542572        -6.6361870143         0.0037837503        -0.0000941549         0.0033480683         0.0050532359        23.4447015834    16 
   35     1         6.2628034129         5.1654122630        29.9012937152        -6.5518465013        -0.0160422533        -0.0132923592        -0.0531550876         0.0570920663        23.7853652350    13 
   36     1         4.9354018330         6.4756677889        27.3205608817        -6.5878346423         0.0020230953         0.0022870112        -0.0227084874         0.0229128509        23.2809633754    13 
   37     1         9.4202214245         4.3838650714        19.5907177845        -6.5949912459         0.0019529253        -0.0180338574         0.0046871536         0.0187350831        23.3968434121    14 
   38     1         8.0924857928         5.7010286421        17.0884635818        -6.5827675160         0.0196842220         0.0044535577         0.1136123846         0.1153909732        24.3297457236    17 
   39     1         9.4211357586         4.4063002630        24.7673310255        -6.6370409880         0.0028672594         0.0044013341         0.0105372145         0.0117739461        23.4630748900    14 
   40     1         8.0699343114         5.6921737503        22.1619689745        -6.6370409880        -0.0028672594        -0.0044013341        -0.0105372145         0.0117739461        23.4630748900    14 
   41     1         9.3985842772         4.3974453712        29.8408364182        -6.5827675160        -0.0196842220        -0.0044535577        -0.1136123846         0.1153909732        24.3297457236    17 
   42     1         8.0708486454         5.7146089419        27.3385822155        -6.5949912459        -0.0019529253         0.0180338574        -0.0046871536         0.0187350831        23.3968434121    14 
   43     1        12.5556682370         3.6228062244        19.6087391183        -6.5878346423        -0.0020230953        -0.0022870112         0.0227084874         0.0229128509        23.2809633754    13 
   44     1        11.2282666571         4.9330617503        17.0280062848        -6.5518465013         0.0160422533         0.0132923592         0.0531550876         0.0570920663        23.7853652350    13 
   45     1        12.5539075820         3.6251873904        24.7534457428        -6.6361870143        -0.0037837503         0.0000941549        -0.0033480683         0.0050532359        23.4447015834    16 
   46     1        11.2087964908         4.9193805615        22.1799363143        -6.6338309887        -0.0034279130        -0.0003888296         0.0074301254         0.0081919802        23.3968176981    13 
   47     1        12.5446138265         3.5929679179        29.9951410926        -6.5794147301        -0.0130775058        -0.0321253177         0.0406922898         0.0534688661        23.9850155849    13 
   48     1        11.2330713405         4.9254561218        27.3700187010        -6.6079565388         0.0208469367         0.0056867307         0.0267493319         0.0343869224        23.4797415131    14 
   49     1         5.4016057349         8.2825490246        19.5754248086        -6.6124351792         0.0197380211        -0.0033783710        -0.0106058223         0.0226602368        23.4531027678    15 
   50     1         5.3858843265         8.2882677695        24.7584551891        -6.6324307952         0.0040166127         0.0023403740         0.0016613781         0.0049366694        23.4007395019    15 
   51     1         5.4299608548         8.2644963333        29.9287807658        -6.5585131319         0.0480931409        -0.0214310622        -0.0256680370         0.0585754962        23.9305747536    16 
   52     1         8.5203214847         7.5120172597        19.6087391183        -6.5878346423        -0.0009690622         0.0028955575         0.0227084874         0.0229128509        23.2809633754    13 
   53     1         7.2184300331         8.8347322083        17.0005192342        -6.5585131319         0.0426064147         0.0309343506         0.0256680370         0.0585754961        23.9305747536    14 
   54     1         8.5232639625         7.5123514486        24.7534457428        -6.6361870143         0.0019734156         0.0032297464        -0.0033480683         0.0050532358        23.4447015834    16 
   55     1         7.1758051014         8.8084465333        22.1708448109        -6.6324307952        -0.0000185171         0.0046486755        -0.0016613781         0.0049366693        23.4007395019    13 
   56     1         8.5000079586         7.5365098132        29.9951410926        -6.5794147302        -0.0212825883         0.0273881110         0.0406922898         0.0534688661        23.9850155849    13 
   57     1         7.1886183840         8.8192022999        27.3538751914        -6.6124351792         0.0127947655         0.0154044421         0.0106058223         0.0226602367        23.4531027678    13 
   58     1        11.6607133800         6.7323160088        19.6030216916        -6.6278374643         0.0000000000        -0.0000000000         0.0169910607         0.0169910607        23.3595762679    18 
   59     1        10.3187368457         8.0064529858        17.0280062848        -6.5518465013         0.0034903941        -0.0205391786         0.0531550876         0.0570920664        23.7853652351    13 
   60     1        11.6607133800         6.7323160088        24.7658194311        -6.6345888897         0.0000000000        -0.0000000000         0.0090256201         0.0090256201        23.4434289322    12 
   61     1        10.3166236717         8.0301552389        22.1799363143        -6.6338309887         0.0013772202         0.0031630744         0.0074301254         0.0081919801        23.3968176981    13 
   62     1        11.6607133800         6.7323160088        30.0241859481        -6.6415202304         0.0000000000        -0.0000000000         0.0697371453         0.0697371453        24.1867719105    12 
   63     1        10.3097478364         8.0060948222        27.3700187010        -6.6079565388        -0.0054986151        -0.0208973422         0.0267493319         0.0343869225        23.4797415131    14 
   64     1        14.8147775291         5.9662185272        19.5907177845        -6.5949912459         0.0146413161         0.0107082117         0.0046871536         0.0187350832        23.3968434121    14 
   65     1        13.4351366372         7.2574332903        17.0280062848        -6.5518465013        -0.0195326474         0.0072468192         0.0531550876         0.0570920663        23.7853652350    13 
   66     1        14.7948909162         5.9557927679        24.7673310255        -6.6370409880        -0.0052452968         0.0002824524         0.0105372145         0.0117739461        23.4630748900    14 
   67     1        13.4567199774         7.2474122261        22.1799363143        -6.6338309887         0.0020506928        -0.0027742450         0.0074301254         0.0081919802        23.3968176981    13 
   68     1        14.8138352182         5.9406900581        29.8408364182        -6.5827675160         0.0136990052        -0.0148202575        -0.1136123846         0.1153909732        24.3297457236    17 
   69     1        13.4393209630         7.2653970824        27.3700187010        -6.6079565388        -0.0153483216         0.0152106113         0.0267493319         0.0343869224        23.4797415131    14 
   70     1        10.7471411863         9.8468644279        19.5907177845        -6.5949912459        -0.0165942413         0.0073256457         0.0046871536         0.0187350831        23.3968434121    14 
   71     1        10.7661134651         9.8348549955        24.7673310255        -6.6370409880         0.0023780375        -0.0046837867         0.0105372145         0.0117739462        23.4630748900    14 
   72     1        10.7697206446         9.8588125972        29.8408364182        -6.5827675160         0.0059852169         0.0192738150        -0.1136123846         0.1153909732        24.3297457236    17 
   73     1        13.9061504183         9.0621245424        19.6087391183        -6.5878346423         0.0029921575        -0.0006085464         0.0227084874         0.0229128509        23.2809633754    13 
   74     1        13.9049685955         9.0594091875        24.7534457428        -6.6361870143         0.0018103347        -0.0033239014        -0.0033480683         0.0050532359        23.4447015834    16 
   75     1        13.9375183549         9.0674702954        29.9951410926        -6.5794147301         0.0343600942         0.0047372065         0.0406922898         0.0534688661        23.9850155849    13 
   76     1        15.7026008916         9.5282381381        17.0005192342        -6.5585131319         0.0054867262        -0.0523654130         0.0256680370         0.0585754963        23.9305747536    14 
   77     1        15.7011492951         9.5782952494        22.1708448109        -6.6324307952         0.0040351297        -0.0023083017        -0.0016613781         0.0049366695        23.4007395019    13 
   78     1        15.7040574209         9.5618207378        27.3538751914        -6.6124351792         0.0069432555        -0.0187828133         0.0106058223         0.0226602370        23.4531027678    13 
   79     1         4.9393639546         0.2396614161         1.4453635818        -6.5827675160         0.0059852169        -0.0192738150         0.1136123846         0.1153909732        24.3297457236    17 
   80     1         4.9357567751         0.2636190178         6.5188689745        -6.6370409880         0.0023780375         0.0046837867        -0.0105372145         0.0117739462        23.4630748900    14 
   81     1         4.9167844963         0.2516095854        11.6954822155        -6.5949912459        -0.0165942413        -0.0073256457        -0.0046871536         0.0187350831        23.3968434121    14 
   82     1         9.8737007309         0.5366532755         3.9323248086        -6.6124351792         0.0069432555         0.0187828133        -0.0106058223         0.0226602370        23.4531027678    13 
   83     1         8.1071616649         1.0310037180         1.2910589074        -6.5794147301         0.0343600942        -0.0047372065        -0.0406922898         0.0534688661        23.9850155849    13 
   84     1         9.8707926051         0.5201787640         9.1153551891        -6.6324307952         0.0040351297         0.0023083017         0.0016613781         0.0049366695        23.4007395019    13 
   85     1         8.0746119055         1.0390648258         6.5327542572        -6.6361870143         0.0018103347         0.0033239014         0.0033480683         0.0050532359        23.4447015834    16 
   86     1         9.8722442016         0.5702358752        14.2856807658        -6.5585131319         0.0054867262         0.0523654130        -0.0256680370         0.0585754963        23.9305747536    14 
   87     1         8.0757937283         1.0363494709        11.6774608817        -6.5878346423         0.0029921575         0.0006085464        -0.0227084874         0.0229128509        23.2809633754    13 
   88     1        11.2603175448         1.8339776800         1.3574192342        -6.5585131319         0.0480931409         0.0214310622         0.0256680370         0.0585754962        23.9305747536    16 
   89     1        11.2162410165         1.8102062438         6.5277448109        -6.6324307952         0.0040166127        -0.0023403740        -0.0016613781         0.0049366694        23.4007395019    15 
   90     1        11.2319624249         1.8159249887        11.7107751914        -6.6124351792         0.0197380211         0.0033783710         0.0106058223         0.0226602369        23.4531027678    15 
   91     1         1.3582616940         1.2792717134         3.9323248086        -6.6124351792         0.0127947655        -0.0154044421        -0.0106058223         0.0226602367        23.4531027678    13 
   92     1         1.3454484114         1.2900274800         9.1153551891        -6.6324307952        -0.0000185171        -0.0046486755         0.0016613781         0.0049366693        23.4007395019    13 
   93     1         1.3880733431         1.2637418050        14.2856807658        -6.5585131319         0.0426064147        -0.0309343506        -0.0256680370         0.0585754961        23.9305747536    14 
   94     1         4.4793911464         2.0923791911         3.9161812990        -6.6079565388        -0.0054986151         0.0208973422        -0.0267493319         0.0343869225        23.4797415131    14 
   95     1         2.6696512686         2.5619642001         1.2910589074        -6.5794147302        -0.0212825883        -0.0273881110        -0.0406922898         0.0534688661        23.9850155849    13 
   96     1         4.4862669817         2.0683187745         9.1062636857        -6.6338309887         0.0013772202        -0.0031630744        -0.0074301254         0.0081919801        23.3968176981    13 
   97     1         2.6929072725         2.5861225647         6.5327542572        -6.6361870143         0.0019734156        -0.0032297464         0.0033480683         0.0050532358        23.4447015834    16 
   98     1         4.4883801557         2.0920210275        14.2581937152        -6.5518465013         0.0034903941         0.0205391786        -0.0531550876         0.0570920664        23.7853652351    13 
   99     1         2.6899647948         2.5864567536        11.6774608817        -6.5878346423        -0.0009690622        -0.0028955575        -0.0227084874         0.0229128509        23.2809633754    13 
  100     1         7.6089642730         2.8330769309         3.9161812990        -6.6079565388        -0.0153483216        -0.0152106113        -0.0267493319         0.0343869224        23.4797415131    14 
  101     1         5.8303566900         3.3661580045         1.2620140519        -6.6415202304         0.0000000000         0.0000000000        -0.0697371453         0.0697371453        24.1867719105    12 
  102     1         7.6263632874         2.8510617873         9.1062636857        -6.6338309887         0.0020506928         0.0027742450        -0.0074301254         0.0081919802        23.3968176981    13 
  103     1         5.8303566900         3.3661580045         6.5203805689        -6.6345888897         0.0000000000         0.0000000000        -0.0090256201         0.0090256201        23.4434289322    12 
  104     1         7.6047799472         2.8410407230        14.2581937152        -6.5518465013        -0.0195326474        -0.0072468192        -0.0531550876         0.0570920663        23.7853652350    13 
  105     1         5.8303566900         3.3661580045        11.6831783084        -6.6278374643         0.0000000000         0.0000000000        -0.0169910607         0.0169910607        23.3595762679    18 
  106     1        10.7657585230         3.6228062244         3.9656391183        -6.5878346423         0.0020230953        -0.0022870112         0.0227084874         0.0229128509        23.2809633754    13 
  107     1         8.9834785282         4.1577839552         1.4453635818        -6.5827675160         0.0136990051         0.0148202575         0.1136123846         0.1153909732        24.3297457236    17 
  108     1        10.7675191780         3.6251873904         9.1103457428        -6.6361870143         0.0037837503         0.0000941549        -0.0033480683         0.0050532359        23.4447015834    16 
  109     1         8.9645342262         4.1426812454         6.5188689745        -6.6370409880        -0.0052452968        -0.0002824524        -0.0105372145         0.0117739461        23.4630748900    14 
  110     1        10.7768129335         3.5929679179        14.3520410926        -6.5794147301         0.0130775058        -0.0321253177         0.0406922898         0.0534688661        23.9850155849    13 
  111     1         8.9844208391         4.1322554861        11.6954822155        -6.5949912459         0.0146413161        -0.0107082117        -0.0046871536         0.0187350832        23.3968434121    14 
  112     1        13.9012053354         4.3838650714         3.9476177845        -6.5949912459        -0.0019529253        -0.0180338574         0.0046871536         0.0187350831        23.3968434121    14 
  113     1        12.0931601029         4.9330617503         1.3849062848        -6.5518465013        -0.0160422533         0.0132923592         0.0531550876         0.0570920663        23.7853652350    13 
  114     1        13.9002910014         4.4063002630         9.1242310255        -6.6370409880        -0.0028672594         0.0044013341         0.0105372145         0.0117739461        23.4630748900    14 
  115     1        12.1126302692         4.9193805615         6.5368363143        -6.6338309887         0.0034279130        -0.0003888296         0.0074301254         0.0081919802        23.3968176981    13 
  116     1        13.9228424828         4.3974453712        14.1977364182        -6.5827675160         0.0196842220        -0.0044535577        -0.1136123846         0.1153909732        24.3297457236    17 
  117     1        12.0883554195         4.9254561218        11.7269187010        -6.6079565388        -0.0208469367         0.0056867307         0.0267493319         0.0343869224        23.4797415131    14 
  118     1         5.4027146505         5.1730178915         3.9161812990        -6.6079565388         0.0208469367        -0.0056867307        -0.0267493319         0.0343869224        23.4797415131    14 
  119     1         3.5682275872         5.7010286421         1.4453635818        -6.5827675160        -0.0196842220         0.0044535577         0.1136123846         0.1153909732        24.3297457236    17 
  120     1         5.3784398008         5.1790934518         9.1062636857        -6.6338309887        -0.0034279130         0.0003888296        -0.0074301254         0.0081919802        23.3968176981    13 
  121     1         3.5907790686         5.6921737503         6.5188689745        -6.6370409880         0.0028672594        -0.0044013341        -0.0105372145         0.0117739461        23.4630748900    14 
  122     1         5.3979099671         5.1654122630        14.2581937152        -6.5518465013         0.0160422533        -0.0132923592        -0.0531550876         0.0570920663        23.7853652350    13 
  123     1         3.5898647345         5.7146089419        11.6954822155        -6.5949912459         0.0019529253         0.0180338574        -0.0046871536         0.0187350831        23.3968434121    14 
  124     1         8.5066492308         5.9662185272         3.9476177845        -6.5949912459        -0.0146413161         0.0107082117         0.0046871536         0.0187350832        23.3968434121    14 
  125     1         6.7142571365         6.5055060954         1.2910589074        -6.5794147301        -0.0130775058         0.0321253177        -0.0406922898         0.0534688661        23.9850155849    13 
  126     1         8.5265358437         5.9557927679         9.1242310255        -6.6370409880         0.0052452968         0.0002824524         0.0105372145         0.0117739461        23.4630748900    14 
  127     1         6.7235508920         6.4732866229         6.5327542572        -6.6361870143        -0.0037837503        -0.0000941549         0.0033480683         0.0050532359        23.4447015834    16 
  128     1         8.5075915418         5.9406900581        14.1977364182        -6.5827675160        -0.0136990051        -0.0148202575        -0.1136123846         0.1153909732        24.3297457236    17 
  129     1         6.7253115470         6.4756677889        11.6774608817        -6.5878346423        -0.0020230953         0.0022870112        -0.0227084874         0.0229128509        23.2809633754    13 
  130     1        11.6607133800         6.7323160088         3.9599216916        -6.6278374643        -0.0000000000        -0.0000000000         0.0169910607         0.0169910607        23.3595762679    18 
  131     1         9.8862901228         7.2574332903         1.3849062848        -6.5518465013         0.0195326474         0.0072468192         0.0531550876         0.0570920663        23.7853652350    13 
  132     1        11.6607133800         6.7323160088         9.1227194311        -6.6345888897        -0.0000000000        -0.0000000000         0.0090256201         0.0090256201        23.4434289322    12 
  133     1         9.8647067826         7.2474122261         6.5368363143        -6.6338309887        -0.0020506928        -0.0027742450         0.0074301254         0.0081919802        23.3968176981    13 
  134     1        11.6607133800         6.7323160088        14.3810859481        -6.6415202304        -0.0000000000        -0.0000000000         0.0697371453         0.0697371453        24.1867719105    12 
  135     1         9.8821057970         7.2653970824        11.7269187010        -6.6079565388         0.0153483216         0.0152106113         0.0267493319         0.0343869224        23.4797415131    14 
  136     1        14.8011052752         7.5120172597         3.9656391183        -6.5878346423         0.0009690622         0.0028955575         0.0227084874         0.0229128509        23.2809633754    13 
  137     1        13.0026899143         8.0064529858         1.3849062848        -6.5518465013        -0.0034903941        -0.0205391786         0.0531550876         0.0570920664        23.7853652351    13 
  138     1        14.7981627974         7.5123514486         9.1103457428        -6.6361870143        -0.0019734156         0.0032297464        -0.0033480683         0.0050532358        23.4447015834    16 
  139     1        13.0048030882         8.0301552389         6.5368363143        -6.6338309887        -0.0013772202         0.0031630744         0.0074301254         0.0081919801        23.3968176981    13 
  140     1        14.8214188014         7.5365098132        14.3520410926        -6.5794147302         0.0212825883         0.0273881110         0.0406922898         0.0534688661        23.9850155849    13 
  141     1        13.0116789235         8.0060948222        11.7269187010        -6.6079565388         0.0054986151        -0.0208973422         0.0267493319         0.0343869225        23.4797415131    14 
  142     1        16.1029967268         8.8347322083         1.3574192342        -6.5585131319        -0.0426064147         0.0309343506         0.0256680370         0.0585754961        23.9305747536    14 