ITEM: TIMESTEP
0
ITEM: NUMBER OF ATOMS
156
ITEM: BOX BOUNDS xy xz yz pp pp pp
0.0000000000000000e+000 1.7491070069989053e+001 5.8303566899890473e+000
0.0000000000000000e+000 1.0098474013000004e+001 2.9999999999999998e-015
0.0000000000000000e+000 3.1286200000000001e+001 2.9999999999999998e-015
ITEM: ATOMS id type x y z c_peatom c_datom[1] c_datom[2] c_datom[3] c_datom[4] c_voratom[1] c_voratom[2] 
    1     1         1.7939559046         0.5178704622        19.5860306309        -6.6156967328         0.0000000000         0.0000000000         0.0000000000         0.0000000000        23.5404615376    14 
    2     1         1.7939559046         0.5178704622        24.7567938110        -6.6324003541         0.0000000000         0.0000000000         0.0000000000         0.0000000000        23.4186670632    14 
    3     1         1.7939559046         0.5178704622        29.9544488028        -6.5377854704         0.0000000000         0.0000000000         0.0000000000         0.0000000000        23.9037975128    14 
    4     1         3.5879118092         1.0357409244        16.9748511972        -6.5722040851        -0.0000000000        -0.0000000000         0.0000000000         0.0000000000        23.8729428678    14 
    5     1         3.5879118092         1.0357409244        22.1725061890        -6.6324003541         0.0000000000         0.0000000000         0.0000000000         0.0000000000        23.4186670636    14 
    6     1         3.5879118092         1.0357409244        27.3432693691        -6.6049427343         0.0000000000         0.0000000000         0.0000000000         0.0000000000        23.5404615379    14 
    7     1         6.7273346423         0.2589352311        16.9748511972        -6.4840598278         0.0000000000         0.0000000000         0.0000000000         0.0000000000        23.8551177499    15 
    8     1         6.7273346423         0.2589352311        22.1725061890        -6.6324003541         0.0000000000         0.0000000000         0.0000000000         0.0000000000        23.4186670632    14 
    9     1         6.7273346423         0.2589352311        27.3432693691        -6.6049427343         0.0000000000         0.0000000000         0.0000000000         0.0000000000        23.5404615375    14 
   10     1         4.0364007854         2.8482875422        19.5860306309        -6.6156967328         0.0000000000         0.0000000000         0.0000000000         0.0000000000        23.5404615388    12 
   11     1         2.6909338569         4.1429636978        16.9748511972        -6.4840598278         0.0000000000         0.0000000000         0.0000000000         0.0000000000        23.8551177517    15 
   12     1         4.0364007854         2.8482875422        24.7567938110        -6.6324003541         0.0000000000         0.0000000000         0.0000000000         0.0000000000        23.4186670644    12 
   13     1         2.6909338569         4.1429636978        22.1725061890        -6.6324003541         0.0000000000         0.0000000000         0.0000000000         0.0000000000        23.4186670650    14 
   14     1         4.0364007854         2.8482875422        29.9544488028        -6.5640848763         0.0000000000         0.0000000000         0.0000000000         0.0000000000        23.9456910645    13 
   15     1         2.6909338569         4.1429636978        27.3432693691        -6.6049427343         0.0000000000         0.0000000000         0.0000000000         0.0000000000        23.5404615394    14 
   16     1         7.1758236184         2.0714818489        19.5860306309        -6.6156967328         0.0000000000         0.0000000000         0.0000000000         0.0000000000        23.5404615383    12 
   17     1         5.8303566900         3.3661580044        16.9748511972        -6.6351300066         0.0000000000         0.0000000000         0.0000000000         0.0000000000        23.8285157994    13 
   18     1         7.1758236184         2.0714818489        24.7567938110        -6.6324003541         0.0000000000         0.0000000000         0.0000000000         0.0000000000        23.4186670639    12 
   19     1         5.8303566900         3.3661580044        22.1725061890        -6.6324003541         0.0000000000         0.0000000000         0.0000000000         0.0000000000        23.4186670649    14 
   20     1         7.1758236184         2.0714818489        29.9544488028        -6.5640848762         0.0000000000         0.0000000000         0.0000000000         0.0000000000        23.9456910641    13 
   21     1         5.8303566900         3.3661580044        27.3432693691        -6.6296184377         0.0000000000         0.0000000000         0.0000000000         0.0000000000        23.5404615393    14 
   22     1        10.3152464515         1.2946761556        19.5860306309        -6.6156967328         0.0000000000        -0.0000000000         0.0000000000         0.0000000000        23.5404615377    12 
   23     1         8.9697795231         2.5893523111        16.9748511972        -6.5722040852         0.0000000000         0.0000000000         0.0000000000         0.0000000000        23.8729428687    14 
   24     1        10.3152464515         1.2946761556        24.7567938110        -6.6324003541         0.0000000000         0.0000000000         0.0000000000         0.0000000000        23.4186670633    12 
   25     1         8.9697795231         2.5893523111        22.1725061890        -6.6324003541         0.0000000000         0.0000000000         0.0000000000         0.0000000000        23.4186670644    14 
   26     1        10.3152464515         1.2946761556        29.9544488028        -6.5377854705         0.0000000000         0.0000000000         0.0000000000         0.0000000000        23.9037975130    13 
   27     1         8.9697795231         2.5893523111        27.3432693691        -6.6049427343         0.0000000000         0.0000000000         0.0000000000         0.0000000000        23.5404615387    14 
   28     1        12.1092023561         1.8125466178        16.9748511972        -6.5377854705         0.0000000000        -0.0000000000         0.0000000000         0.0000000000        23.9037975136    15 
   29     1        12.1092023561         1.8125466178        22.1725061890        -6.6324003541         0.0000000000         0.0000000000         0.0000000000         0.0000000000        23.4186670641    14 
   30     1        12.1092023561         1.8125466178        27.3432693691        -6.6156967328         0.0000000000         0.0000000000         0.0000000000         0.0000000000        23.5404615385    14 
   31     1         6.2788456661         5.1787046222        19.5860306309        -6.6156967329         0.0000000000         0.0000000000         0.0000000000         0.0000000000        23.5404615393    12 
   32     1         4.9333787377         6.4733807778        16.9748511972        -6.5722040852         0.0000000000         0.0000000000         0.0000000000         0.0000000000        23.8729428693    13 
   33     1         6.2788456661         5.1787046222        24.7567938110        -6.6324003541        -0.0000000000         0.0000000000         0.0000000000         0.0000000000        23.4186670649    12 
   34     1         4.9333787377         6.4733807778        22.1725061890        -6.6324003541         0.0000000000         0.0000000000         0.0000000000         0.0000000000        23.4186670650    12 
   35     1         6.2788456661         5.1787046222        29.9544488028        -6.5640848762         0.0000000000        -0.0000000000         0.0000000000         0.0000000000        23.9456910651    13 
   36     1         4.9333787377         6.4733807778        27.3432693691        -6.6049427343         0.0000000000         0.0000000000         0.0000000000         0.0000000000        23.5404615393    12 
   37     1         9.4182684992         4.4018989289        19.5860306309        -6.6049427343         0.0000000000         0.0000000000         0.0000000000         0.0000000000        23.5404615393    12 
   38     1         8.0728015708         5.6965750844        16.9748511972        -6.4840598278         0.0000000000         0.0000000000         0.0000000000         0.0000000000        23.8551177516    14 
   39     1         9.4182684992         4.4018989289        24.7567938110        -6.6324003541         0.0000000000         0.0000000000         0.0000000000         0.0000000000        23.4186670649    12 
   40     1         8.0728015708         5.6965750844        22.1725061890        -6.6324003541         0.0000000000        -0.0000000000         0.0000000000         0.0000000000        23.4186670649    12 
   41     1         9.4182684992         4.4018989289        29.9544488028        -6.4840598278         0.0000000000         0.0000000000         0.0000000000         0.0000000000        23.8551177516    14 
   42     1         8.0728015708         5.6965750844        27.3432693691        -6.6049427343         0.0000000000         0.0000000000         0.0000000000         0.0000000000        23.5404615393    12 
   43     1        12.5576913323         3.6250932355        19.5860306309        -6.6049427343         0.0000000000         0.0000000000         0.0000000000         0.0000000000        23.5404615393    12 
   44     1        11.2122244038         4.9197693911        16.9748511972        -6.5640848762         0.0000000000         0.0000000000         0.0000000000         0.0000000000        23.9456910651    13 
   45     1        12.5576913323         3.6250932355        24.7567938110        -6.6324003541         0.0000000000         0.0000000000         0.0000000000         0.0000000000        23.4186670650    12 
   46     1        11.2122244038         4.9197693911        22.1725061890        -6.6324003541        -0.0000000000        -0.0000000000         0.0000000000         0.0000000000        23.4186670649    12 
   47     1        12.5576913323         3.6250932355        29.9544488028        -6.5722040852         0.0000000000         0.0000000000         0.0000000000         0.0000000000        23.8729428693    13 
   48     1        11.2122244038         4.9197693911        27.3432693691        -6.6156967329         0.0000000000         0.0000000000         0.0000000000         0.0000000000        23.5404615393    12 
   49     1         5.3818677138         8.2859273955        19.5860306309        -6.6156967328         0.0000000000         0.0000000000         0.0000000000         0.0000000000        23.5404615385    14 
   50     1         5.3818677138         8.2859273955        24.7567938110        -6.6324003541         0.0000000000         0.0000000000         0.0000000000         0.0000000000        23.4186670641    14 
   51     1         5.3818677138         8.2859273955        29.9544488028        -6.5377854705         0.0000000000         0.0000000000         0.0000000000         0.0000000000        23.9037975136    15 
   52     1         8.5212905469         7.5091217022        19.5860306309        -6.6049427343         0.0000000000         0.0000000000         0.0000000000         0.0000000000        23.5404615387    14 
   53     1         7.1758236184         8.8037978578        16.9748511972        -6.5377854705         0.0000000000         0.0000000000         0.0000000000         0.0000000000        23.9037975130    13 
   54     1         8.5212905469         7.5091217022        24.7567938110        -6.6324003541        -0.0000000000         0.0000000000         0.0000000000         0.0000000000        23.4186670644    14 
   55     1         7.1758236184         8.8037978578        22.1725061890        -6.6324003541         0.0000000000         0.0000000000         0.0000000000         0.0000000000        23.4186670633    12 
   56     1         8.5212905469         7.5091217022        29.9544488028        -6.5722040852         0.0000000000         0.0000000000         0.0000000000         0.0000000000        23.8729428687    14 
   57     1         7.1758236184         8.8037978578        27.3432693691        -6.6156967328         0.0000000000         0.0000000000         0.0000000000         0.0000000000        23.5404615377    12 
   58     1        11.6607133800         6.7323160089        19.5860306309        -6.6296184377         0.0000000000         0.0000000000         0.0000000000         0.0000000000        23.5404615393    14 
   59     1        10.3152464515         8.0269921644        16.9748511972        -6.5640848762         0.0000000000         0.0000000000         0.0000000000         0.0000000000        23.9456910641    13 
   60     1        11.6607133800         6.7323160089        24.7567938110        -6.6324003541         0.0000000000         0.0000000000         0.0000000000         0.0000000000        23.4186670649    14 
   61     1        10.3152464515         8.0269921644        22.1725061890        -6.6324003541         0.0000000000         0.0000000000         0.0000000000         0.0000000000        23.4186670639    12 
   62     1        11.6607133800         6.7323160089        29.9544488028        -6.6351300066         0.0000000000        -0.0000000000         0.0000000000         0.0000000000        23.8285157994    13 
   63     1        10.3152464515         8.0269921644        27.3432693691        -6.6156967328         0.0000000000         0.0000000000         0.0000000000         0.0000000000        23.5404615383    12 
   64     1        14.8001362130         5.9555103155        19.5860306309        -6.6049427343         0.0000000000         0.0000000000         0.0000000000         0.0000000000        23.5404615394    14 
   65     1        13.4546692846         7.2501864711        16.9748511972        -6.5640848763        -0.0000000000         0.0000000000         0.0000000000         0.0000000000        23.9456910645    13 
   66     1        14.8001362130         5.9555103155        24.7567938110        -6.6324003541         0.0000000000         0.0000000000         0.0000000000         0.0000000000        23.4186670650    14 
   67     1        13.4546692846         7.2501864711        22.1725061890        -6.6324003541         0.0000000000        -0.0000000000         0.0000000000         0.0000000000        23.4186670644    12 
   68     1        14.8001362130         5.9555103155        29.9544488028        -6.4840598278         0.0000000000        -0.0000000000         0.0000000000         0.0000000000        23.8551177517    15 
   69     1        13.4546692846         7.2501864711        27.3432693691        -6.6156967328         0.0000000000         0.0000000000         0.0000000000         0.0000000000        23.5404615388    12 
   70     1        10.7637354277         9.8395387822        19.5860306309        -6.6049427343         0.0000000000         0.0000000000         0.0000000000         0.0000000000        23.5404615375    14 
   71     1        10.7637354277         9.8395387822        24.7567938110        -6.6324003541         0.0000000000         0.0000000000         0.0000000000         0.0000000000        23.4186670632    14 
   72     1        10.7637354277         9.8395387822        29.9544488028        -6.4840598278         0.0000000000         0.0000000000         0.0000000000         0.0000000000        23.8551177499    15 
   73     1        13.9031582607         9.0627330889        19.5860306309        -6.6049427343         0.0000000000         0.0000000000         0.0000000000         0.0000000000        23.5404615379    14 
   74     1        13.9031582607         9.0627330889        24.7567938110        -6.6324003541         0.0000000000         0.0000000000         0.0000000000         0.0000000000        23.4186670636    14 
   75     1        13.9031582607         9.0627330889        29.9544488028        -6.5722040851         0.0000000000         0.0000000000         0.0000000000         0.0000000000        23.8729428678    14 
   76     1        15.6971141654         9.5806035511        16.9748511972        -6.5377854704         0.0000000000         0.0000000000         0.0000000000         0.0000000000        23.9037975128    14 
   77     1        15.6971141654         9.5806035511        22.1725061890        -6.6324003541         0.0000000000         0.0000000000         0.0000000000         0.0000000000        23.4186670632    14 
   78     1        15.6971141654         9.5806035511        27.3432693691        -6.6156967328         0.0000000000         0.0000000000         0.0000000000         0.0000000000        23.5404615376    14 
   79     1         4.9333787377         0.2589352311         1.3317511972        -6.4840598278         0.0000000000         0.0000000000         0.0000000000         0.0000000000        23.8551177499    15 
   80     1         4.9333787377         0.2589352311         6.5294061890        -6.6324003541         0.0000000000         0.0000000000         0.0000000000         0.0000000000        23.4186670632    14 
   81     1         4.9333787377         0.2589352311        11.7001693691        -6.6049427343         0.0000000000         0.0000000000         0.0000000000         0.0000000000        23.5404615375    14 
   82     1         9.8667574754         0.5178704622         3.9429306309        -6.6156967328         0.0000000000         0.0000000000         0.0000000000         0.0000000000        23.5404615376    12 
   83     1         8.0728015708         1.0357409244         1.3317511972        -6.5722040851         0.0000000000         0.0000000000         0.0000000000         0.0000000000        23.8729428677    14 
   84     1         9.8667574754         0.5178704622         9.1136938110        -6.6324003541         0.0000000000         0.0000000000         0.0000000000         0.0000000000        23.4186670632    12 
   85     1         8.0728015708         1.0357409244         6.5294061890        -6.6324003541         0.0000000000         0.0000000000         0.0000000000         0.0000000000        23.4186670635    14 
   86     1         9.8667574754         0.5178704622        14.3113488028        -6.5377854704         0.0000000000        -0.0000000000         0.0000000000         0.0000000000        23.9037975128    13 
   87     1         8.0728015708         1.0357409244        11.7001693691        -6.6049427343         0.0000000000         0.0000000000         0.0000000000         0.0000000000        23.5404615379    14 
   88     1        11.2122244038         1.8125466178         1.3317511972        -6.5377854705         0.0000000000         0.0000000000         0.0000000000         0.0000000000        23.9037975136    16 
   89     1        11.2122244038         1.8125466178         6.5294061890        -6.6324003541        -0.0000000000         0.0000000000         0.0000000000         0.0000000000        23.4186670641    16 
   90     1        11.2122244038         1.8125466178        11.7001693691        -6.6156967329         0.0000000000         0.0000000000         0.0000000000         0.0000000000        23.5404615385    16 
   91     1         1.3454669285         1.2946761556         3.9429306309        -6.6156967328         0.0000000000         0.0000000000         0.0000000000         0.0000000000        23.5404615377    12 
   92     1         1.3454669285         1.2946761556         9.1136938110        -6.6324003541         0.0000000000         0.0000000000         0.0000000000         0.0000000000        23.4186670634    12 
   93     1         1.3454669285         1.2946761556        14.3113488028        -6.5377854705         0.0000000000        -0.0000000000         0.0000000000         0.0000000000        23.9037975131    13 
   94     1         4.4848897615         2.0714818489         3.9429306309        -6.6156967328         0.0000000000         0.0000000000         0.0000000000         0.0000000000        23.5404615383    12 
   95     1         2.6909338569         2.5893523111         1.3317511972        -6.5722040852         0.0000000000         0.0000000000         0.0000000000         0.0000000000        23.8729428688    14 
   96     1         4.4848897615         2.0714818489         9.1136938110        -6.6324003541         0.0000000000         0.0000000000         0.0000000000         0.0000000000        23.4186670639    12 
   97     1         2.6909338569         2.5893523111         6.5294061890        -6.6324003541         0.0000000000         0.0000000000         0.0000000000         0.0000000000        23.4186670644    14 
   98     1         4.4848897615         2.0714818489        14.3113488028        -6.5640848762         0.0000000000         0.0000000000         0.0000000000         0.0000000000        23.9456910641    13 
   99     1         2.6909338569         2.5893523111        11.7001693691        -6.6049427343         0.0000000000         0.0000000000         0.0000000000         0.0000000000        23.5404615388    14 
  100     1         7.6243125946         2.8482875422         3.9429306309        -6.6156967328         0.0000000000         0.0000000000         0.0000000000         0.0000000000        23.5404615387    12 
  101     1         5.8303566900         3.3661580044         1.3317511972        -6.6351300066         0.0000000000         0.0000000000         0.0000000000         0.0000000000        23.8285157994    13 
  102     1         7.6243125946         2.8482875422         9.1136938110        -6.6324003541         0.0000000000         0.0000000000         0.0000000000         0.0000000000        23.4186670643    12 
  103     1         5.8303566900         3.3661580044         6.5294061890        -6.6324003541         0.0000000000         0.0000000000         0.0000000000         0.0000000000        23.4186670649    14 
  104     1         7.6243125946         2.8482875422        14.3113488028        -6.5640848763         0.0000000000         0.0000000000         0.0000000000         0.0000000000        23.9456910645    13 
  105     1         5.8303566900         3.3661580044        11.7001693691        -6.6296184377         0.0000000000         0.0000000000         0.0000000000         0.0000000000        23.5404615393    14 
  106     1        10.7637354277         3.6250932355         3.9429306309        -6.6049427343         0.0000000000        -0.0000000000         0.0000000000         0.0000000000        23.5404615393    12 
  107     1         8.9697795231         4.1429636978         1.3317511972        -6.4840598278         0.0000000000         0.0000000000         0.0000000000         0.0000000000        23.8551177516    14 
  108     1        10.7637354277         3.6250932355         9.1136938110        -6.6324003541         0.0000000000         0.0000000000         0.0000000000         0.0000000000        23.4186670649    12 
  109     1         8.9697795231         4.1429636978         6.5294061890        -6.6324003541         0.0000000000         0.0000000000         0.0000000000         0.0000000000        23.4186670649    12 
  110     1        10.7637354277         3.6250932355        14.3113488028        -6.5722040852         0.0000000000         0.0000000000         0.0000000000         0.0000000000        23.8729428692    13 
  111     1         8.9697795231         4.1429636978        11.7001693691        -6.6049427343         0.0000000000         0.0000000000         0.0000000000         0.0000000000        23.5404615393    12 
  112     1        13.9031582607         4.4018989289         3.9429306309        -6.6049427343         0.0000000000        -0.0000000000         0.0000000000         0.0000000000        23.5404615394    14 
  113     1        12.1092023561         4.9197693911         1.3317511972        -6.5640848762         0.0000000000         0.0000000000         0.0000000000         0.0000000000        23.9456910651    13 
  114     1        13.9031582607         4.4018989289         9.1136938110        -6.6324003541         0.0000000000         0.0000000000         0.0000000000         0.0000000000        23.4186670650    14 
  115     1        12.1092023561         4.9197693911         6.5294061890        -6.6324003541         0.0000000000         0.0000000000         0.0000000000         0.0000000000        23.4186670649    12 
  116     1        13.9031582607         4.4018989289        14.3113488028        -6.4840598279         0.0000000000         0.0000000000         0.0000000000         0.0000000000        23.8551177517    15 
  117     1        12.1092023561         4.9197693911        11.7001693691        -6.6156967329         0.0000000000         0.0000000000         0.0000000000         0.0000000000        23.5404615393    12 
  118     1         5.3818677138         5.1787046222         3.9429306309        -6.6156967329         0.0000000000         0.0000000000         0.0000000000         0.0000000000        23.5404615393    12 
  119     1         3.5879118092         5.6965750844         1.3317511972        -6.4840598279         0.0000000000         0.0000000000         0.0000000000         0.0000000000        23.8551177517    15 
  120     1         5.3818677138         5.1787046222         9.1136938110        -6.6324003541         0.0000000000         0.0000000000         0.0000000000         0.0000000000        23.4186670649    12 
  121     1         3.5879118092         5.6965750844         6.5294061890        -6.6324003541         0.0000000000         0.0000000000         0.0000000000         0.0000000000        23.4186670650    14 
  122     1         5.3818677138         5.1787046222        14.3113488028        -6.5640848762         0.0000000000         0.0000000000         0.0000000000         0.0000000000        23.9456910651    13 
  123     1         3.5879118092         5.6965750844        11.7001693691        -6.6049427343         0.0000000000         0.0000000000         0.0000000000         0.0000000000        23.5404615394    14 
  124     1         8.5212905469         5.9555103155         3.9429306309        -6.6049427343         0.0000000000         0.0000000000         0.0000000000         0.0000000000        23.5404615393    12 
  125     1         6.7273346423         6.4733807778         1.3317511972        -6.5722040852         0.0000000000         0.0000000000         0.0000000000         0.0000000000        23.8729428692    13 
  126     1         8.5212905469         5.9555103155         9.1136938110        -6.6324003541         0.0000000000         0.0000000000         0.0000000000         0.0000000000        23.4186670649    12 
  127     1         6.7273346423         6.4733807778         6.5294061890        -6.6324003541         0.0000000000         0.0000000000         0.0000000000         0.0000000000        23.4186670649    12 
  128     1         8.5212905469         5.9555103155        14.3113488028        -6.4840598278         0.0000000000         0.0000000000         0.0000000000         0.0000000000        23.8551177516    14 
  129     1         6.7273346423         6.4733807778        11.7001693691        -6.6049427343         0.0000000000         0.0000000000         0.0000000000         0.0000000000        23.5404615393    12 
  130     1        11.6607133800         6.7323160089         3.9429306309        -6.6296184377         0.0000000000        -0.0000000000         0.0000000000         0.0000000000        23.5404615393    14 
  131     1         9.8667574754         7.2501864711         1.3317511972        -6.5640848763         0.0000000000         0.0000000000         0.0000000000         0.0000000000        23.9456910645    13 
  132     1        11.6607133800         6.7323160089         9.1136938110        -6.6324003541         0.0000000000        -0.0000000000         0.0000000000         0.0000000000        23.4186670649    14 
  133     1         9.8667574754         7.2501864711         6.5294061890        -6.6324003541         0.0000000000        -0.0000000000         0.0000000000         0.0000000000        23.4186670643    12 
  134     1        11.6607133800         6.7323160089        14.3113488028        -6.6351300066         0.0000000000         0.0000000000         0.0000000000         0.0000000000        23.8285157994    13 
  135     1         9.8667574754         7.2501864711        11.7001693691        -6.6156967328         0.0000000000         0.0000000000         0.0000000000         0.0000000000        23.5404615387    12 
  136     1        14.8001362130         7.5091217022         3.9429306309        -6.6049427343         0.0000000000         0.0000000000         0.0000000000         0.0000000000        23.5404615388    14 
  137     1        13.0061803084         8.0269921644         1.3317511972        -6.5640848762         0.0000000000         0.0000000000         0.0000000000         0.0000000000        23.9456910641    13 
  138     1        14.8001362130         7.5091217022         9.1136938110        -6.6324003541         0.0000000000         0.0000000000         0.0000000000         0.0000000000        23.4186670644    14 
  139     1        13.0061803084         8.0269921644         6.5294061890        -6.6324003541        -0.0000000000         0.0000000000         0.0000000000         0.0000000000        23.4186670639    12 
  140     1        14.8001362130         7.5091217022        14.3113488028        -6.5722040852         0.0000000000         0.0000000000         0.0000000000         0.0000000000        23.8729428688    14 
  141     1        13.0061803084         8.0269921644        11.7001693691        -6.6156967328         0.0000000000         0.0000000000         0.0000000000         0.0000000000        23.5404615383    12 
  142     1        16.1456031415         8.8037978578         1.3317511972        -6.5377854705         0.0000000000         0.0000000000         0.0000000000         0.0000000000        23.9037975131    13 