Header

84 atoms
1 atom types

0.0    5.167700000 xlo xhi
0.0    8.556624315 ylo yhi
0.0   44.601524165 zlo zhi

0.000000000000001        2.583850000000006        34.226497260455986       xy xz yz

Atoms

       1    1       5.167700000000002       18.946810983466705       22.659743245196239
       2    1       2.583850000000004       20.780373336705413       23.018362679955629
       3    1       5.167700000000002       21.391560787784986       24.800388008163011
       4    1       2.583850000000004       20.169185885625843       26.215909571639063
       5    1       5.167700000000004       24.447498043182836       23.733518955797404
       6    1       2.583850000000003       23.225123141023698       25.154789255439240
       7    1       2.583850000000004       26.281060396421548       24.089871000499848
       8    1       5.167700000000004       29.336997651819409       27.981423547393845
       9    1       5.167700000000004       23.836310592103278       26.922356754969979
      10    1       2.583850000000003       22.613935689944132       28.334365857593646
      11    1       5.167700000000004       26.892247847501125       25.862459002158356
      12    1       2.583850000000004       25.669872945341986       27.275434253717201
      13    1       5.167700000000004       23.225123141023698       30.098855603294943
      14    1       5.167700000000004       26.281060396421548       29.040191960645743
      15    1       2.583850000000005       25.058685494262416       30.451733684532428
      16    1       2.583850000000004       28.114622749660271       29.393086650673929
      17    1       5.167700000000004       25.669872945341982       32.216097204173401
      18    1       2.583850000000005       33.004122358296840       33.627578986280490
      19    1       5.167700000000005       28.725810200739840       31.157482744762188
      20    1       2.583850000000005       27.503435298580701       32.568967508516039
      21    1       2.583850000000005       30.559372553978555       31.510355053190196
      22    1       5.167700000000005       33.615309809376406       35.391931194564883
      23    1       5.167700000000005       28.114622749660271       34.333318739239054
      24    1       2.583850000000006       35.448872162615125       35.744803502992887
      25    1       5.167700000000004       31.170560005058121       33.274707261474589
      26    1       2.583850000000005       29.948185102898982       34.686189043581663
      27    1       5.167700000000005       36.060059613694698       37.509199597081142
      28    1       5.167700000000005       30.559372553978555       36.450552563222651
      29    1       2.583850000000005       29.336997651819416       37.862094287109343
      30    1       2.583850000000005       32.392934907217267       36.803430644460128
      31    1       5.167700000000008       38.504809418012982       39.626851994037878
      32    1       2.583850000000006       37.282434515853843       41.039827245596726
      33    1       5.167700000000006       33.004122358296840       38.567920390161433
      34    1       2.583850000000005       31.781747456137694       39.979929492785097
      35    1       2.583850000000006       34.837684711535552       38.920862700361234
      36    1       5.167700000000007       37.893621966933409       42.812415247255217
      37    1       5.167700000000005       32.392934907217267       41.747496992315824
      38    1       2.583850000000007       39.727184320172121       43.168767291957650
      39    1       5.167700000000006       35.448872162615125       40.686376676116005
      40    1       2.583850000000006       34.226497260455979       42.101898239592046
      41    1       5.167700000000005       34.837684711535552       43.883923567799449
      42    1       2.583850000000006       36.671247064774278       44.242543002558826
      43    1       3.875774999999999        6.723061961875281        0.358981162611211
      44    1       1.291925000000000        4.889499608636563        0.717600597370607
      45    1       1.291925000000000        7.945436864034419        1.789108917914826
      46    1       3.875775000000000        1.222374902159137        1.432756873212378
      47    1       3.875775000000000        4.278312157556995        2.499625925577991
      48    1       1.291925000000000        2.444749804318279        2.854027172854219
      49    1       3.875775000000000        7.334249412954849        3.561696919573331
      50    1       1.291925000000000        5.500687059716132        3.915147489054042
      51    1       3.875775000000000       10.390186668352705        4.621594672384947
      52    1       1.291925000000001        8.556624315113989        4.974672171132175
      53    1       1.291925000000001       11.612561570511840        6.033603775008620
      54    1       3.875775000000000        4.889499608636568        5.680661464808813
      55    1       3.875775000000000        7.945436864034422        6.739429878060715
      56    1       1.291925000000001        6.111874510795707        7.092324568088904
      57    1       3.875775000000000       11.001374119432278        7.798093520709915
      58    1       1.291925000000001        9.167811766193561        8.150971601947402
      59    1       1.291925000000001       12.223749021591416        9.209592970605161
      60    1       3.875775000000001       14.057311374830130        8.856720662177164
      61    1       3.875775000000001        8.556624315113993        9.915335121588383
      62    1       1.291925000000002       15.279686276989272       10.268205425931002
      63    1       3.875775000000001       11.612561570511847       10.973945178889563
      64    1       1.291925000000002        9.778999217273137       11.326816903695461
      65    1       3.875775000000001       14.668498825909698       12.032556656654020
      66    1       1.291925000000002       12.834936472670991       12.385426960996641
      67    1       1.291925000000002       15.890873728068843       13.444041420407855
      68    1       3.875775000000002       17.724436081307555       13.091169111979863
      69    1       3.875775000000001       12.223749021591416       14.149790480637620
      70    1       1.291925000000002       18.946810983466701       14.502668561875112
      71    1       3.875775000000002       15.279686276989271       15.208437514496124
      72    1       1.291925000000002       13.446123923750559       15.561332204524307
      73    1       1.291925000000002       16.502061179148416       16.620100617776213
      74    1       3.875775000000002       18.335623532387132       16.267158307576409
      75    1       3.875775000000003       21.391560787784982       17.326089911452847
      76    1       1.291925000000003       19.557998434546271       17.679167410200076
      77    1       3.875775000000002       15.890873728068847       18.385614593530985
      78    1       1.291925000000003       22.613935689944125       18.739065163011695
      79    1       3.875775000000002       18.946810983466698       19.446734909730804
      80    1       1.291925000000002       17.113248630227989       19.801136157007036
      81    1       1.291925000000003       20.169185885625843       20.868005209372644
      82    1       3.875775000000003       22.002748238864555       20.511653164670200
      83    1       3.875775000000003       25.058685494262413       21.583161485214418
      84    1       1.291925000000003       23.225123141023698       21.941780919973816
