ITEM: TIMESTEP
47
ITEM: NUMBER OF ATOMS
84
ITEM: BOX BOUNDS xy xz yz pp pp pp
0.0000000000000000e+000 7.7515500000000070e+000 1.0000000000000001e-015
0.0000000000000000e+000 4.2783121575455986e+001 2.5838500000000062e+000
0.0000000000000000e+000 4.4601524165000001e+001 3.4226497260455986e+001
ITEM: ATOMS id type x y z c_peatom c_datom[1] c_datom[2] c_datom[3] c_datom[4] c_voratom[1] c_voratom[2] 
    1     1         5.1839866686        18.7889139882        22.6481416622        -6.4886366185         0.0162866686        -0.1578969953        -0.0116015830         0.1591581396        24.0618299018    14 
    2     1         2.7570208815        20.6782335501        23.0829493453        -6.4915856501         0.1731708815        -0.1021397866         0.0645866654         0.2111684814        23.6436808921    15 
    3     1         5.2499853715        21.3889427695        24.6521933453        -6.6344195746         0.0822853715        -0.0026180182        -0.1481946629         0.1695269728        24.2108252102    15 
    4     1         2.6258811206        20.2054505351        26.1756322581        -6.6197990717         0.0420311206         0.0362646495        -0.0402773135         0.0685857265        23.2984181931    14 
    5     1         5.1355413309        24.5067021695        24.0643703017        -6.3435903398        -0.0321586691         0.0592041263         0.3308513459         0.3376417061        21.9871848593    15 
    6     1         2.6129231870        23.2173573571        25.0895290119        -6.5837783613         0.0290731870        -0.0077657839        -0.0652602435         0.0718641565        23.8490862420    13 
    7     1         2.5442637480        26.3025248016        24.0762269009        -6.5749236424        -0.0395862520         0.0214644052        -0.0136440996         0.0470526672        23.8365683821    15 
    8     1         5.1939249821        29.3531248034        27.9468437025        -6.6280861343         0.0262249821         0.0161271516        -0.0345798449         0.0462990322        23.4988396298    12 
    9     1         5.1874564684        23.8094775072        26.9589326372        -6.5859238036         0.0197564684        -0.0268330849         0.0365758822         0.0494785575        23.1612874478    16 
   10     1         2.6025056225        22.6218865668        28.3123725819        -6.6152736629         0.0186556225         0.0079508768        -0.0219932757         0.0299157629        23.3841209849    12 
   11     1         5.1684649091        26.9545697021        25.8573842941        -6.6178295708         0.0007649091         0.0623218545        -0.0050747081         0.0625328018        23.1011442260    15 
   12     1         2.5932138819        25.6799185078        27.2642474035        -6.6632576389         0.0093638819         0.0100455625        -0.0111868502         0.0177127419        23.6597064139    14 
   13     1         5.1790794087        23.2231645222        30.1066658168        -6.6405062086         0.0113794087        -0.0019586188         0.0078102135         0.0139401063        23.4173319722    16 
   14     1         5.1793296761        26.2881008730        29.0206396753        -6.6322629324         0.0116296761         0.0070404765        -0.0195522854         0.0238140618        23.4411586250    12 
   15     1         2.5928973766        25.0652069071        30.4358011906        -6.6444340802         0.0090473766         0.0065214128        -0.0159324939         0.0194480902        23.4911962270    16 
   16     1         2.5989712909        28.1235942332        29.3673555686        -6.6451569863         0.0151212909         0.0089714836        -0.0257310821         0.0311645558        23.5309836181    16 
   17     1         5.1714540416        25.6717425225        32.2112620771        -6.6327481629         0.0037540416         0.0018695772        -0.0048351271         0.0064005157        23.4797459698    12 
   18     1         2.5830528106        33.0076965970        33.6221865783        -6.6376688797        -0.0007971894         0.0035742387        -0.0053924080         0.0065183400        23.4861593592    16 
   19     1         5.1761647047        28.7250082404        31.1453570704        -6.6318509514         0.0084647047        -0.0008019604        -0.0121256744         0.0148096707        23.5169317742    14 
   20     1         2.5868802761        27.5068534674        32.5625822661        -6.6347598671         0.0030302761         0.0034181688        -0.0063852425         0.0078509727        23.5113458673    14 
   21     1         2.5908826748        30.5606081421        31.5041345037        -6.6311822930         0.0070326748         0.0012355882        -0.0062205495         0.0094699752        23.4807554321    12 
   22     1         5.1606673252        33.6140742212        35.3981517440        -6.6311822929        -0.0070326748        -0.0012355882         0.0062205495         0.0094699752        23.4807554315    12 
   23     1         5.1646697239        28.1112045810        34.3397039816        -6.6347598671        -0.0030302761        -0.0034181687         0.0063852424         0.0078509726        23.5113458673    14 
   24     1         2.5753852953        35.4496741229        35.7569291773        -6.6318509513        -0.0084647047         0.0008019603         0.0121256743         0.0148096706        23.5169317739    14 
   25     1         5.1684971894        31.1669857663        33.2800996694        -6.6376688797         0.0007971894        -0.0035742387         0.0053924079         0.0065183400        23.4861593591    16 
   26     1         2.5800959584        29.9463155258        34.6910241706        -6.6327481629        -0.0037540416        -0.0018695771         0.0048351270         0.0064005156        23.4797459693    12 
   27     1         5.1525787091        36.0510881300        37.5349306791        -6.6451569863        -0.0151212909        -0.0089714837         0.0257310820         0.0311645558        23.5309836175    16 
   28     1         5.1586526234        30.5528511412        36.4664850570        -6.6444340803        -0.0090473766        -0.0065214128         0.0159324937         0.0194480900        23.4911962274    16 
   29     1         2.5722203239        29.3299571753        37.8816465724        -6.6322629324        -0.0116296761        -0.0070404766         0.0195522853         0.0238140617        23.4411586261    12 
   30     1         2.5724705913        32.3948935261        36.7956204308        -6.6405062087        -0.0113794087         0.0019586189        -0.0078102137         0.0139401065        23.4173319732    16 
   31     1         5.1583361181        38.4947638555        39.6380388443        -6.6632576389        -0.0093638819        -0.0100455625         0.0111868503         0.0177127420        23.6597064127    14 
   32     1         2.5830850909        37.2201126616        41.0449019536        -6.6178295706        -0.0007649091        -0.0623218543         0.0050747080         0.0625328015        23.1011442240    15 
   33     1         5.1490443775        32.9961714816        38.5899136657        -6.6152736630        -0.0186556225        -0.0079508767         0.0219932755         0.0299157627        23.3841209864    12 
   34     1         2.5640935316        31.8085805409        39.9433536111        -6.5859238032        -0.0197564684         0.0268330847        -0.0365758817         0.0494785570        23.1612874446    16 
   35     1         2.5576250179        34.8215575599        38.9554425452        -6.6280861343        -0.0262249821        -0.0161271516         0.0345798448         0.0462990321        23.4988396303    12 
   36     1         5.2072862521        37.8721575618        42.8260593466        -6.5749236426         0.0395862521        -0.0214644052         0.0136440993         0.0470526672        23.8365683837    15 
   37     1         5.1386268130        32.4007006910        41.8127572357        -6.5837783611        -0.0290731870         0.0077657838         0.0652602434         0.0718641564        23.8490862403    13 
   38     1         2.6160086692        39.6679801938        42.8379159446        -6.3435903404         0.0321586692        -0.0592041264        -0.3308513474         0.3376417075        21.9871848617    15 
   39     1         5.1256688795        35.4126075132        40.7266539894        -6.6197990718        -0.0420311205        -0.0362646494         0.0402773133         0.0685857263        23.2984181953    14 
   40     1         2.5015646283        34.2291152786        42.2500929024        -6.6344195748        -0.0822853717         0.0026180182         0.1481946628         0.1695269728        24.2108252123    15 
   41     1         4.9945291190        34.9398244981        43.8193369030        -6.4915856496        -0.1731708810         0.1021397866        -0.0645866648         0.2111684809        23.6436808879    15 
   42     1         2.5675633309        36.8291440594        44.2541445860        -6.4886366183        -0.0162866691         0.1578969947         0.0116015834         0.1591581391        24.0618299021    14 
   43     1         3.8920616683         6.8809589576         0.3473795800        -6.4886366187         0.0162866683         0.1578969957        -0.0116015826         0.1591581400        24.0618299015    14 
   44     1         1.4650958819         4.9916393953         0.7821872633        -6.4915856504         0.1731708819         0.1021397867         0.0645866659         0.2111684819        23.6436808951    15 
   45     1         1.2523387481         7.9239724588         1.7754648183        -6.5749236422        -0.0395862519        -0.0214644053        -0.0136440996         0.0470526671        23.8365683810    15 
   46     1         3.8436163309         1.1631707760         1.7636082183        -6.3435903395        -0.0321586691        -0.0592041262         0.3308513451         0.3376417052        21.9871848576    15 
   47     1         3.9580603714         4.2809301759         2.3514312628        -6.6344195744         0.0822853714         0.0026180184        -0.1481946628         0.1695269726        24.2108252087    15 
   48     1         1.3209981869         2.4525155884         2.7887669293        -6.5837783614         0.0290731869         0.0077657841        -0.0652602435         0.0718641565        23.8490862432    13 
   49     1         3.8765399090         7.2719275581         3.5566222116        -6.6178295709         0.0007649090        -0.0623218548        -0.0050747080         0.0625328021        23.1011442274    15 
   50     1         1.3339561206         5.4644224103         3.8748701755        -6.6197990716         0.0420311206        -0.0362646495        -0.0402773136         0.0685857266        23.2984181915    14 
   51     1         3.8955314684        10.4170197533         4.6581705551        -6.5859238038         0.0197564684         0.0268330850         0.0365758827         0.0494785579        23.1612874500    16 
   52     1         1.3012888819         8.5465787526         4.9634853212        -6.6632576389         0.0093638819        -0.0100455625        -0.0111868500         0.0177127418        23.6597064147    14 
   53     1         1.3105806225        11.6046106936         6.0116104994        -6.6152736629         0.0186556225        -0.0079508769        -0.0219932756         0.0299157628        23.3841209839    12 
   54     1         3.9019999821         4.8733724570         5.6460816200        -6.6280861343         0.0262249821        -0.0161271516        -0.0345798449         0.0462990321        23.4988396295    12 
   55     1         3.8874046761         7.9383963876         6.7198775928        -6.6322629324         0.0116296761        -0.0070404764        -0.0195522853         0.0238140617        23.4411586243    12 
   56     1         1.3070462909         6.1029030273         7.0665934861        -6.6451569863         0.0151212909        -0.0089714835        -0.0257310820         0.0311645558        23.5309836185    16 
   57     1         3.8871544087        11.0033327382         7.8059037342        -6.6405062086         0.0113794087         0.0019586188         0.0078102135         0.0139401064        23.4173319714    16 
   58     1         1.3009723766         9.1612903534         8.1350391080        -6.6444340802         0.0090473766        -0.0065214128        -0.0159324939         0.0194480901        23.4911962267    16 
   59     1         1.2989576748        12.2225134334         9.2033724212        -6.6311822930         0.0070326748        -0.0012355882        -0.0062205494         0.0094699751        23.4807554324    12 
   60     1         3.8842397047        14.0581133352         8.8445949879        -6.6318509514         0.0084647047         0.0008019603        -0.0121256742         0.0148096706        23.5169317744    14 
   61     1         3.8795290416         8.5547547380         9.9104999946        -6.6327481629         0.0037540416        -0.0018695771        -0.0048351270         0.0064005156        23.4797459700    12 
   62     1         1.2949552761        15.2762681082        10.2618201836        -6.6347598671         0.0030302761        -0.0034181688        -0.0063852424         0.0078509726        23.5113458672    14 
   63     1         3.8765721894        11.6161358092        10.9793375869        -6.6376688798         0.0007971894         0.0035742387         0.0053924080         0.0065183401        23.4861593593    16 
   64     1         1.2911278106         9.7754249786        11.3214244958        -6.6376688797        -0.0007971894        -0.0035742387        -0.0053924079         0.0065183399        23.4861593594    16 
   65     1         3.8727447239        14.6719169946        12.0389418991        -6.6347598671        -0.0030302761         0.0034181687         0.0063852425         0.0078509727        23.5113458672    14 
   66     1         1.2881709584        12.8368060498        12.3902620881        -6.6327481629        -0.0037540416         0.0018695771         0.0048351271         0.0064005157        23.4797459694    12 
   67     1         1.2834602953        15.8900717677        13.4561670948        -6.6318509514        -0.0084647047        -0.0008019604         0.0121256743         0.0148096707        23.5169317741    14 
   68     1         3.8687423252        17.7256716695        13.0973896615        -6.6311822930        -0.0070326748         0.0012355881         0.0062205495         0.0094699752        23.4807554318    12 
   69     1         3.8667276234        12.2302704344        14.1657229745        -6.6444340802        -0.0090473766         0.0065214128         0.0159324939         0.0194480901        23.4911962271    16 
   70     1         1.2805455913        18.9448523646        14.4948583484        -6.6405062086        -0.0113794087        -0.0019586189        -0.0078102135         0.0139401064        23.4173319724    16 
   71     1         3.8606537091        15.2886577606        15.2341685966        -6.6451569863        -0.0151212909         0.0089714836         0.0257310821         0.0311645559        23.5309836180    16 
   72     1         1.2802953239        13.4531644003        15.5808844899        -6.6322629324        -0.0116296761         0.0070404766         0.0195522854         0.0238140618        23.4411586254    12 
   73     1         1.2657000179        16.5181883308        16.6546804627        -6.6280861343        -0.0262249821         0.0161271516         0.0345798449         0.0462990322        23.4988396299    12 
   74     1         3.8571193775        18.3435744091        16.2891515832        -6.6152736630        -0.0186556225         0.0079508767         0.0219932757         0.0299157628        23.3841209854    12 
   75     1         3.8664111181        21.4016063502        17.3372767617        -6.6632576389        -0.0093638819         0.0100455624         0.0111868503         0.0177127419        23.6597064135    14 
   76     1         1.2721685316        19.5311653497        17.6425915282        -6.5859238035        -0.0197564684        -0.0268330849        -0.0365758820         0.0494785573        23.1612874469    16 
   77     1         3.8337438795        15.9271383775        18.4258919070        -6.6197990717        -0.0420311205         0.0362646495         0.0402773135         0.0685857265        23.2984181937    14 
   78     1         1.2911600909        22.6762575444        18.7441398711        -6.6178295708        -0.0007649091         0.0623218544         0.0050747081         0.0625328017        23.1011442254    15 
   79     1         3.8467018130        18.9390451996        19.5119951533        -6.5837783612        -0.0290731870        -0.0077657839         0.0652602435         0.0718641565        23.8490862414    13 
   80     1         1.2096396284        17.1106306120        19.9493308199        -6.6344195746        -0.0822853716        -0.0026180182         0.1481946629         0.1695269728        24.2108252109    15 
   81     1         1.3240836691        20.2283900119        20.5371538630        -6.3435903400         0.0321586691         0.0592041263        -0.3308513463         0.3376417065        21.9871848601    15 
   82     1         3.9153612520        22.0242126440        20.5252972642        -6.5749236424         0.0395862520         0.0214644052         0.0136440995         0.0470526672        23.8365683826    15 
   83     1         3.7026041186        24.9565457076        21.5185748200        -6.4915856499        -0.1731708814        -0.1021397866        -0.0645866652         0.2111684813        23.6436808909    15 
   84     1         1.2756383312        23.0672261459        21.9533825031        -6.4886366185        -0.0162866688        -0.1578969951         0.0116015831         0.1591581395        24.0618299019    14 
