ITEM: TIMESTEP
0
ITEM: NUMBER OF ATOMS
84
ITEM: BOX BOUNDS xy xz yz pp pp pp
0.0000000000000000e+000 7.7515500000000070e+000 1.0000000000000001e-015
0.0000000000000000e+000 4.2783121575455986e+001 2.5838500000000062e+000
0.0000000000000000e+000 4.4601524165000001e+001 3.4226497260455986e+001
ITEM: ATOMS id type x y z c_peatom c_datom[1] c_datom[2] c_datom[3] c_datom[4] c_voratom[1] c_voratom[2] 
    1     1         5.1677000000        18.9468109835        22.6597432452        -6.2179520850         0.0000000000         0.0000000000         0.0000000000         0.0000000000        23.6255048958    13 
    2     1         2.5838500000        20.7803733367        23.0183626800        -6.3037842717         0.0000000000         0.0000000000         0.0000000000         0.0000000000        23.2332526493    14 
    3     1         5.1677000000        21.3915607878        24.8003880082        -6.6318908978         0.0000000000         0.0000000000         0.0000000000         0.0000000000        24.4201577720    16 
    4     1         2.5838500000        20.1691858856        26.2159095716        -6.6330433674         0.0000000000         0.0000000000         0.0000000000         0.0000000000        23.4670732764    14 
    5     1         5.1677000000        24.4474980432        23.7335189558        -6.0015385818         0.0000000000         0.0000000000         0.0000000000         0.0000000000        21.9429606729    14 
    6     1         2.5838500000        23.2251231410        25.1547892554        -6.6066023042         0.0000000000         0.0000000000         0.0000000000         0.0000000000        24.0405315156    15 
    7     1         2.5838500000        26.2810603964        24.0898710005        -6.6027351273         0.0000000000         0.0000000000         0.0000000000         0.0000000000        24.4580159576    16 
    8     1         5.1677000000        29.3369976518        27.9814235474        -6.6303530213         0.0000000000         0.0000000000         0.0000000000         0.0000000000        23.4199379735    14 
    9     1         5.1677000000        23.8363105921        26.9223567550        -6.6299947394         0.0000000000         0.0000000000         0.0000000000         0.0000000000        23.4441419234    14 
   10     1         2.5838500000        22.6139356899        28.3343658576        -6.6319575486        -0.0000000000         0.0000000000         0.0000000000         0.0000000000        23.4145744590    14 
   11     1         5.1677000000        26.8922478475        25.8624590022        -6.6474218236         0.0000000000         0.0000000000         0.0000000000         0.0000000000        23.4943561777    14 
   12     1         2.5838500000        25.6698729453        27.2754342537        -6.6455238269         0.0000000000         0.0000000000         0.0000000000         0.0000000000        23.4308565618    14 
   13     1         5.1677000000        23.2251231410        30.0988556033        -6.6343738122         0.0000000000         0.0000000000         0.0000000000         0.0000000000        23.4067181581    14 
   14     1         5.1677000000        26.2810603964        29.0401919606        -6.6340201232         0.0000000000         0.0000000000         0.0000000000         0.0000000000        23.4102614570    14 
   15     1         2.5838500000        25.0586854943        30.4517336845        -6.6343466391         0.0000000000         0.0000000000         0.0000000000         0.0000000000        23.4060226667    14 
   16     1         2.5838500000        28.1146227497        29.3930866507        -6.6339005371         0.0000000000         0.0000000000         0.0000000000         0.0000000000        23.4082882644    14 
   17     1         5.1677000000        25.6698729453        32.2160972042        -6.6346539693         0.0000000000         0.0000000000         0.0000000000         0.0000000000        23.4050464212    14 
   18     1         2.5838500000        33.0041223583        33.6275789863        -6.6346740542        -0.0000000000         0.0000000000         0.0000000000         0.0000000000        23.4049282148    14 
   19     1         5.1677000000        28.7258102007        31.1574827448        -6.6345730055         0.0000000000         0.0000000000         0.0000000000         0.0000000000        23.4054698795    14 
   20     1         2.5838500000        27.5034352986        32.5689675085        -6.6346525311        -0.0000000000         0.0000000000         0.0000000000         0.0000000000        23.4049724061    14 
   21     1         2.5838500000        30.5593725540        31.5103550532        -6.6345668615         0.0000000000         0.0000000000         0.0000000000         0.0000000000        23.4052299263    14 
   22     1         5.1677000000        33.6153098094        35.3919311946        -6.6345668615         0.0000000000         0.0000000000         0.0000000000         0.0000000000        23.4052299265    14 
   23     1         5.1677000000        28.1146227497        34.3333187392        -6.6346525311         0.0000000000         0.0000000000         0.0000000000         0.0000000000        23.4049724059    14 
   24     1         2.5838500000        35.4488721626        35.7448035030        -6.6345730055         0.0000000000         0.0000000000         0.0000000000         0.0000000000        23.4054698791    14 
   25     1         5.1677000000        31.1705600051        33.2747072615        -6.6346740543         0.0000000000         0.0000000000         0.0000000000         0.0000000000        23.4049282150    14 
   26     1         2.5838500000        29.9481851029        34.6861890436        -6.6346539693        -0.0000000000         0.0000000000         0.0000000000         0.0000000000        23.4050464214    14 
   27     1         5.1677000000        36.0600596137        37.5091995971        -6.6339005370         0.0000000000         0.0000000000         0.0000000000         0.0000000000        23.4082882642    14 
   28     1         5.1677000000        30.5593725540        36.4505525632        -6.6343466391         0.0000000000         0.0000000000         0.0000000000         0.0000000000        23.4060226667    14 
   29     1         2.5838500000        29.3369976518        37.8620942871        -6.6340201231        -0.0000000000         0.0000000000         0.0000000000         0.0000000000        23.4102614565    14 
   30     1         2.5838500000        32.3929349072        36.8034306445        -6.6343738122        -0.0000000000         0.0000000000         0.0000000000         0.0000000000        23.4067181586    14 
   31     1         5.1677000000        38.5048094180        39.6268519940        -6.6455238269         0.0000000000         0.0000000000         0.0000000000         0.0000000000        23.4308565615    14 
   32     1         2.5838500000        37.2824345159        41.0398272456        -6.6474218237         0.0000000000         0.0000000000         0.0000000000         0.0000000000        23.4943561779    14 
   33     1         5.1677000000        33.0041223583        38.5679203902        -6.6319575486         0.0000000000         0.0000000000         0.0000000000         0.0000000000        23.4145744592    14 
   34     1         2.5838500000        31.7817474561        39.9799294928        -6.6299947394         0.0000000000         0.0000000000         0.0000000000         0.0000000000        23.4441419231    14 
   35     1         2.5838500000        34.8376847115        38.9208627004        -6.6303530213         0.0000000000         0.0000000000         0.0000000000         0.0000000000        23.4199379738    14 
   36     1         5.1677000000        37.8936219669        42.8124152473        -6.6027351273         0.0000000000         0.0000000000         0.0000000000         0.0000000000        24.4580159576    16 
   37     1         5.1677000000        32.3929349072        41.7474969923        -6.6066023042         0.0000000000         0.0000000000         0.0000000000         0.0000000000        24.0405315148    15 
   38     1         2.5838500000        39.7271843202        43.1687672920        -6.0015385815         0.0000000000         0.0000000000         0.0000000000         0.0000000000        21.9429606717    14 
   39     1         5.1677000000        35.4488721626        40.6863766761        -6.6330433675        -0.0000000000         0.0000000000         0.0000000000         0.0000000000        23.4670732769    14 
   40     1         2.5838500000        34.2264972605        42.1018982396        -6.6318908979         0.0000000000         0.0000000000         0.0000000000         0.0000000000        24.4201577718    16 
   41     1         5.1677000000        34.8376847115        43.8839235678        -6.3037842715         0.0000000000         0.0000000000         0.0000000000         0.0000000000        23.2332526481    14 
   42     1         2.5838500000        36.6712470648        44.2425430026        -6.2179520849         0.0000000000         0.0000000000         0.0000000000         0.0000000000        23.6255048954    13 
   43     1         3.8757750000         6.7230619619         0.3589811626        -6.2179520849         0.0000000000         0.0000000000         0.0000000000         0.0000000000        23.6255048950    13 
   44     1         1.2919250000         4.8894996086         0.7176005974        -6.3037842716        -0.0000000000         0.0000000000         0.0000000000         0.0000000000        23.2332526484    14 
   45     1         1.2919250000         7.9454368640         1.7891089179        -6.6027351273         0.0000000000         0.0000000000         0.0000000000         0.0000000000        24.4580159572    16 
   46     1         3.8757750000         1.2223749022         1.4327568732        -6.0015385815        -0.0000000000         0.0000000000         0.0000000000         0.0000000000        21.9429606716    14 
   47     1         3.8757750000         4.2783121576         2.4996259256        -6.6318908979         0.0000000000         0.0000000000         0.0000000000         0.0000000000        24.4201577719    16 
   48     1         1.2919250000         2.4447498043         2.8540271729        -6.6066023042        -0.0000000000         0.0000000000         0.0000000000         0.0000000000        24.0405315149    15 
   49     1         3.8757750000         7.3342494130         3.5616969196        -6.6474218237         0.0000000000         0.0000000000         0.0000000000         0.0000000000        23.4943561780    14 
   50     1         1.2919250000         5.5006870597         3.9151474891        -6.6330433675         0.0000000000         0.0000000000         0.0000000000         0.0000000000        23.4670732768    14 
   51     1         3.8757750000        10.3901866684         4.6215946724        -6.6299947395         0.0000000000         0.0000000000         0.0000000000         0.0000000000        23.4441419232    14 
   52     1         1.2919250000         8.5566243151         4.9746721711        -6.6455238269         0.0000000000         0.0000000000         0.0000000000         0.0000000000        23.4308565618    14 
   53     1         1.2919250000        11.6125615705         6.0336037750        -6.6319575486         0.0000000000         0.0000000000         0.0000000000         0.0000000000        23.4145744589    14 
   54     1         3.8757750000         4.8894996086         5.6806614648        -6.6303530213         0.0000000000         0.0000000000         0.0000000000         0.0000000000        23.4199379735    14 
   55     1         3.8757750000         7.9454368640         6.7394298781        -6.6340201232        -0.0000000000         0.0000000000         0.0000000000         0.0000000000        23.4102614568    14 
   56     1         1.2919250000         6.1118745108         7.0923245681        -6.6339005370         0.0000000000         0.0000000000         0.0000000000         0.0000000000        23.4082882643    14 
   57     1         3.8757750000        11.0013741194         7.7980935207        -6.6343738122         0.0000000000         0.0000000000         0.0000000000         0.0000000000        23.4067181585    14 
   58     1         1.2919250000         9.1678117662         8.1509716019        -6.6343466391         0.0000000000         0.0000000000         0.0000000000         0.0000000000        23.4060226668    14 
   59     1         1.2919250000        12.2237490216         9.2095929706        -6.6345668615         0.0000000000         0.0000000000         0.0000000000         0.0000000000        23.4052299266    14 
   60     1         3.8757750000        14.0573113748         8.8567206622        -6.6345730055         0.0000000000         0.0000000000         0.0000000000         0.0000000000        23.4054698793    14 
   61     1         3.8757750000         8.5566243151         9.9153351216        -6.6346539693         0.0000000000         0.0000000000         0.0000000000         0.0000000000        23.4050464211    14 
   62     1         1.2919250000        15.2796862770        10.2682054259        -6.6346525311         0.0000000000         0.0000000000         0.0000000000         0.0000000000        23.4049724058    14 
   63     1         3.8757750000        11.6125615705        10.9739451789        -6.6346740543         0.0000000000         0.0000000000         0.0000000000         0.0000000000        23.4049282151    14 
   64     1         1.2919250000         9.7789992173        11.3268169037        -6.6346740542         0.0000000000         0.0000000000         0.0000000000         0.0000000000        23.4049282148    14 
   65     1         3.8757750000        14.6684988259        12.0325566567        -6.6346525311         0.0000000000         0.0000000000         0.0000000000         0.0000000000        23.4049724062    14 
   66     1         1.2919250000        12.8349364727        12.3854269610        -6.6346539693         0.0000000000         0.0000000000         0.0000000000         0.0000000000        23.4050464215    14 
   67     1         1.2919250000        15.8908737281        13.4440414204        -6.6345730055         0.0000000000         0.0000000000         0.0000000000         0.0000000000        23.4054698795    14 
   68     1         3.8757750000        17.7244360813        13.0911691120        -6.6345668615         0.0000000000         0.0000000000         0.0000000000         0.0000000000        23.4052299263    14 
   69     1         3.8757750000        12.2237490216        14.1497904806        -6.6343466391         0.0000000000         0.0000000000         0.0000000000         0.0000000000        23.4060226664    14 
   70     1         1.2919250000        18.9468109835        14.5026685619        -6.6343738122         0.0000000000         0.0000000000         0.0000000000         0.0000000000        23.4067181581    14 
   71     1         3.8757750000        15.2796862770        15.2084375145        -6.6339005370         0.0000000000         0.0000000000         0.0000000000         0.0000000000        23.4082882645    14 
   72     1         1.2919250000        13.4461239238        15.5613322045        -6.6340201232         0.0000000000         0.0000000000         0.0000000000         0.0000000000        23.4102614566    14 
   73     1         1.2919250000        16.5020611791        16.6201006178        -6.6303530213         0.0000000000         0.0000000000         0.0000000000         0.0000000000        23.4199379739    14 
   74     1         3.8757750000        18.3356235324        16.2671583076        -6.6319575487         0.0000000000         0.0000000000         0.0000000000         0.0000000000        23.4145744593    14 
   75     1         3.8757750000        21.3915607878        17.3260899115        -6.6455238269         0.0000000000         0.0000000000         0.0000000000         0.0000000000        23.4308565616    14 
   76     1         1.2919250000        19.5579984345        17.6791674102        -6.6299947394         0.0000000000         0.0000000000         0.0000000000         0.0000000000        23.4441419234    14 
   77     1         3.8757750000        15.8908737281        18.3856145935        -6.6330433674         0.0000000000         0.0000000000         0.0000000000         0.0000000000        23.4670732764    14 
   78     1         1.2919250000        22.6139356899        18.7390651630        -6.6474218236         0.0000000000         0.0000000000         0.0000000000         0.0000000000        23.4943561776    14 
   79     1         3.8757750000        18.9468109835        19.4467349097        -6.6066023042         0.0000000000         0.0000000000         0.0000000000         0.0000000000        24.0405315154    15 
   80     1         1.2919250000        17.1132486302        19.8011361570        -6.6318908978         0.0000000000         0.0000000000         0.0000000000         0.0000000000        24.4201577717    16 
   81     1         1.2919250000        20.1691858856        20.8680052094        -6.0015385818         0.0000000000         0.0000000000         0.0000000000         0.0000000000        21.9429606730    14 
   82     1         3.8757750000        22.0027482389        20.5116531647        -6.6027351273         0.0000000000         0.0000000000         0.0000000000         0.0000000000        24.4580159580    16 
   83     1         3.8757750000        25.0586854943        21.5831614852        -6.3037842717         0.0000000000         0.0000000000         0.0000000000         0.0000000000        23.2332526491    14 
   84     1         1.2919250000        23.2251231410        21.9417809200        -6.2179520850         0.0000000000         0.0000000000         0.0000000000         0.0000000000        23.6255048963    13 
