LAMMPS (11 Aug 2017)
OMP_NUM_THREADS environment is not set. Defaulting to 1 thread. (../comm.cpp:90)
  using 1 OpenMP thread(s) per MPI task
units        metal
dimension    3
boundary     p p p
box          tilt large
atom_style   atomic

read_data    atoms.lammps
  triclinic box = (0 0 0) to (5.1677 8.55662 44.6015) with tilt (1e-015 2.58385 34.2265)
WARNING: Triclinic box skew is large (../domain.cpp:197)
  1 by 1 by 1 MPI processor grid
  reading atoms ...
  84 atoms

pair_style eam/fs
pair_coeff * * "C:\Users\adamj\dropbox\code_db\supporting_manuscript_code\first-principles-zr-grain-boundaries\data\potential\Zr_3.eam.fs" Zr


compute peatom all pe/atom
compute datom all displace/atom
compute voratom all voronoi/atom

thermo_style custom step atoms pe ke etotal fmax
thermo_modify format float %20.10f
thermo 1

dump 1 all custom 100 dump.*.txt id type x y z c_peatom c_datom[1] c_datom[2] c_datom[3] c_datom[4] c_voratom[1] c_voratom[2]
dump_modify 1 format line "%5d %5d %20.10f %20.10f %20.10f %20.10f %20.10f %20.10f %20.10f %20.10f %20.10f %5.f"

min_style cg
minimize 0.0 1.0e-6 10000 100000
WARNING: Using 'neigh_modify every 1 delay 0 check yes' setting during minimization (../min.cpp:168)
Neighbor list info ...
  update every 1 steps, delay 0 steps, check yes
  max neighbors/atom: 2000, page size: 100000
  master list distance cutoff = 9.6
  ghost atom cutoff = 9.6
  binsize = 4.8, bins = 2 9 10
  1 neighbor lists, perpetual/occasional/extra = 1 0 0
  (1) pair eam/fs, perpetual
      attributes: half, newton on
      pair build: half/bin/newton/tri
      stencil: half/bin/3d/newton/tri
      bin: standard
Per MPI rank memory allocation (min/avg/max) = 6.768 | 6.768 | 6.768 Mbytes
Step Atoms PotEng KinEng TotEng Fmax 
       0       84      -551.5702365129         0.0000000000      -551.5702365129         2.4060579239 
       1       84      -553.0976975361         0.0000000000      -553.0976975361         1.6656153059 
       2       84      -553.9364680622         0.0000000000      -553.9364680622         0.6706355949 
       3       84      -554.1410639403         0.0000000000      -554.1410639403         0.1774169748 
       4       84      -554.2136627239         0.0000000000      -554.2136627239         0.1376476761 
       5       84      -554.2609877540         0.0000000000      -554.2609877540         0.0659835485 
       6       84      -554.2890152099         0.0000000000      -554.2890152099         0.0446575561 
       7       84      -554.2988225134         0.0000000000      -554.2988225134         0.0465228014 
       8       84      -554.3041994202         0.0000000000      -554.3041994202         0.0322242820 
       9       84      -554.3066514995         0.0000000000      -554.3066514995         0.0182644083 
      10       84      -554.3079545661         0.0000000000      -554.3079545661         0.0162235036 
      11       84      -554.3088567849         0.0000000000      -554.3088567849         0.0134712874 
      12       84      -554.3094818650         0.0000000000      -554.3094818650         0.0077741598 
      13       84      -554.3100683521         0.0000000000      -554.3100683521         0.0087422274 
      14       84      -554.3103979914         0.0000000000      -554.3103979914         0.0053213579 
      15       84      -554.3105271283         0.0000000000      -554.3105271283         0.0049283287 
      16       84      -554.3105940866         0.0000000000      -554.3105940866         0.0039445962 
      17       84      -554.3106362052         0.0000000000      -554.3106362052         0.0019999443 
      18       84      -554.3106588678         0.0000000000      -554.3106588678         0.0011416505 
      19       84      -554.3106658842         0.0000000000      -554.3106658842         0.0008262309 
      20       84      -554.3106691102         0.0000000000      -554.3106691102         0.0008866283 
      21       84      -554.3106720189         0.0000000000      -554.3106720189         0.0007375191 
      22       84      -554.3106775016         0.0000000000      -554.3106775016         0.0012321688 
      23       84      -554.3106850650         0.0000000000      -554.3106850650         0.0014941118 
      24       84      -554.3106926386         0.0000000000      -554.3106926386         0.0010815573 
      25       84      -554.3106952938         0.0000000000      -554.3106952938         0.0006068970 
      26       84      -554.3106964298         0.0000000000      -554.3106964298         0.0004203476 
      27       84      -554.3106970373         0.0000000000      -554.3106970373         0.0002313230 
      28       84      -554.3106972684         0.0000000000      -554.3106972684         0.0002164516 
      29       84      -554.3106973881         0.0000000000      -554.3106973881         0.0001227234 
      30       84      -554.3106974797         0.0000000000      -554.3106974797         0.0001373851 
      31       84      -554.3106975923         0.0000000000      -554.3106975923         0.0001395942 
      32       84      -554.3106976668         0.0000000000      -554.3106976668         0.0001103966 
      33       84      -554.3106977001         0.0000000000      -554.3106977001         0.0001273990 
      34       84      -554.3106977157         0.0000000000      -554.3106977157         0.0000381801 
      35       84      -554.3106977201         0.0000000000      -554.3106977201         0.0000155577 
      36       84      -554.3106977210         0.0000000000      -554.3106977210         0.0000095868 
      37       84      -554.3106977213         0.0000000000      -554.3106977213         0.0000034171 
      38       84      -554.3106977214         0.0000000000      -554.3106977214         0.0000036085 
      39       84      -554.3106977214         0.0000000000      -554.3106977214         0.0000022427 
      40       84      -554.3106977214         0.0000000000      -554.3106977214         0.0000023011 
      41       84      -554.3106977214         0.0000000000      -554.3106977214         0.0000016828 
      42       84      -554.3106977214         0.0000000000      -554.3106977214         0.0000014838 
      43       84      -554.3106977215         0.0000000000      -554.3106977215         0.0000013009 
      44       84      -554.3106977215         0.0000000000      -554.3106977215         0.0000005300 
      45       84      -554.3106977215         0.0000000000      -554.3106977215         0.0000005831 
      46       84      -554.3106977215         0.0000000000      -554.3106977215         0.0000002325 
      47       84      -554.3106977215         0.0000000000      -554.3106977215         0.0000001675 
Loop time of 0.0669241 on 1 procs for 47 steps with 84 atoms

116.7% CPU use with 1 MPI tasks x 1 OpenMP threads

Minimization stats:
  Stopping criterion = force tolerance
  Energy initial, next-to-last, final = 
        -551.570236513     -554.310697721     -554.310697721
  Force two-norm initial, final = 6.65458 9.29374e-007
  Force max component initial, final = 2.40606 1.67469e-007
  Final line search alpha, max atom move = 1 1.67469e-007
  Iterations, force evaluations = 47 92

MPI task timing breakdown:
Section |  min time  |  avg time  |  max time  |%varavg| %total
---------------------------------------------------------------
Pair    | 0.022246   | 0.022246   | 0.022246   |   0.0 | 33.24
Neigh   | 0          | 0          | 0          |   0.0 |  0.00
Comm    | 0.00099993 | 0.00099993 | 0.00099993 |   0.0 |  1.49
Output  | 0          | 0          | 0          |   0.0 |  0.00
Modify  | 0          | 0          | 0          |   0.0 |  0.00
Other   |            | 0.04368    |            |       | 65.27

Nlocal:    84 ave 84 max 84 min
Histogram: 1 0 0 0 0 0 0 0 0 0
Nghost:    2090 ave 2090 max 2090 min
Histogram: 1 0 0 0 0 0 0 0 0 0
Neighs:    6224 ave 6224 max 6224 min
Histogram: 1 0 0 0 0 0 0 0 0 0

Total # of neighbors = 6224
Ave neighs/atom = 74.0952
Neighbor list builds = 0
Dangerous builds = 0
Total wall time: 0:00:00
