Header

156 atoms
1 atom types

0.0   11.660713380 xlo xhi
0.0   10.098474013 ylo yhi
0.0   31.006200000 zlo zhi

5.830356689989047        0.000000000000003        0.000000000000003        xy xz yz

Atoms

       1    1       1.793955904612015        0.517870462221034       19.378875000000001
       2    1       1.793955904612016        0.517870462221035       24.546574999999997
       3    1       1.793955904612016        0.517870462221035       29.714275000000001
       4    1       3.587911809224029        1.035740924442066       16.795024999999999
       5    1       3.587911809224030        1.035740924442066       21.962724999999999
       6    1       3.587911809224030        1.035740924442067       27.130424999999999
       7    1       6.727334642295054        0.258935231110517       16.795024999999999
       8    1       6.727334642295054        0.258935231110518       21.962724999999999
       9    1       6.727334642295055        0.258935231110518       27.130424999999999
      10    1       4.036400785377033        2.848287542215679       19.378875000000001
      11    1       2.690933856918023        4.142963697768259       16.795024999999999
      12    1       4.036400785377033        2.848287542215679       24.546574999999997
      13    1       2.690933856918023        4.142963697768260       21.962724999999999
      14    1       4.036400785377033        2.848287542215680       29.714275000000001
      15    1       2.690933856918024        4.142963697768260       27.130424999999999
      16    1       7.175823618448057        2.071481848884130       19.378875000000001
      17    1       5.830356689989048        3.366158004436711       16.795024999999999
      18    1       7.175823618448057        2.071481848884131       24.546574999999997
      19    1       5.830356689989048        3.366158004436711       21.962724999999999
      20    1       7.175823618448057        2.071481848884131       29.714275000000001
      21    1       5.830356689989049        3.366158004436711       27.130424999999999
      22    1      10.315246451519082        1.294676155552582       19.378875000000001
      23    1       8.969779523060073        2.589352311105162       16.795024999999999
      24    1      10.315246451519082        1.294676155552583       24.546574999999997
      25    1       8.969779523060074        2.589352311105163       21.962724999999999
      26    1      10.315246451519082        1.294676155552583       29.714275000000001
      27    1       8.969779523060074        2.589352311105163       27.130424999999999
      28    1      12.109202356131094        1.812546617773614       16.795024999999999
      29    1      12.109202356131094        1.812546617773615       21.962724999999999
      30    1      12.109202356131094        1.812546617773615       27.130424999999999
      31    1       6.278845666142050        5.178704622210327       19.378875000000001
      32    1       4.933378737683041        6.473380777762904       16.795024999999999
      33    1       6.278845666142052        5.178704622210327       24.546574999999997
      34    1       4.933378737683042        6.473380777762905       21.962724999999999
      35    1       6.278845666142052        5.178704622210328       29.714275000000001
      36    1       4.933378737683042        6.473380777762904       27.130424999999999
      37    1       9.418268499213076        4.401898928878778       19.378875000000001
      38    1       8.072801570754065        5.696575084431356       16.795024999999999
      39    1       9.418268499213076        4.401898928878778       24.546574999999997
      40    1       8.072801570754066        5.696575084431357       21.962724999999999
      41    1       9.418268499213076        4.401898928878778       29.714275000000001
      42    1       8.072801570754066        5.696575084431357       27.130424999999999
      43    1      12.557691332284099        3.625093235547228       19.378875000000001
      44    1      11.212224403825088        4.919769391099807       16.795024999999999
      45    1      12.557691332284101        3.625093235547229       24.546574999999997
      46    1      11.212224403825088        4.919769391099809       21.962724999999999
      47    1      12.557691332284101        3.625093235547230       29.714275000000001
      48    1      11.212224403825088        4.919769391099809       27.130424999999999
      49    1       5.381867713836046        8.285927395536520       19.378875000000001
      50    1       5.381867713836046        8.285927395536522       24.546574999999997
      51    1       5.381867713836046        8.285927395536522       29.714275000000001
      52    1       8.521290546907068        7.509121702204970       19.378875000000001
      53    1       7.175823618448060        8.803797857757548       16.795024999999999
      54    1       8.521290546907069        7.509121702204972       24.546574999999997
      55    1       7.175823618448060        8.803797857757548       21.962724999999999
      56    1       8.521290546907069        7.509121702204972       29.714275000000001
      57    1       7.175823618448062        8.803797857757550       27.130424999999999
      58    1      11.660713379978096        6.732316008873423       19.378875000000001
      59    1      10.315246451519082        8.026992164426003       16.795024999999999
      60    1      11.660713379978098        6.732316008873425       24.546574999999997
      61    1      10.315246451519082        8.026992164426003       21.962724999999999
      62    1      11.660713379978098        6.732316008873425       29.714275000000001
      63    1      10.315246451519084        8.026992164426005       27.130424999999999
      64    1      14.800136213049122        5.955510315541874       19.378875000000001
      65    1      13.454669284590107        7.250186471094452       16.795024999999999
      66    1      14.800136213049122        5.955510315541876       24.546574999999997
      67    1      13.454669284590107        7.250186471094452       21.962724999999999
      68    1      14.800136213049122        5.955510315541876       29.714275000000001
      69    1      13.454669284590107        7.250186471094453       27.130424999999999
      70    1      10.763735427672088        9.839538782199613       19.378875000000001
      71    1      10.763735427672088        9.839538782199615       24.546574999999997
      72    1      10.763735427672088        9.839538782199615       29.714275000000001
      73    1      13.903158260743114        9.062733088868066       19.378875000000001
      74    1      13.903158260743114        9.062733088868068       24.546574999999997
      75    1      13.903158260743114        9.062733088868068       29.714275000000001
      76    1      15.697114165355124        9.580603551089101       16.795024999999999
      77    1      15.697114165355124        9.580603551089101       21.962724999999999
      78    1      15.697114165355124        9.580603551089103       27.130424999999999
      79    1       1.793955904612014        0.517870462221033        3.875775000000001
      80    1       1.793955904612015        0.517870462221033        9.043475000000001
      81    1       1.793955904612015        0.517870462221034       14.211175000000001
      82    1       3.587911809224028        1.035740924442064        1.291925000000001
      83    1       3.587911809224028        1.035740924442065        6.459625000000001
      84    1       3.587911809224028        1.035740924442065       11.627324999999999
      85    1       6.727334642295053        0.258935231110516        1.291925000000001
      86    1       6.727334642295053        0.258935231110516        6.459625000000001
      87    1       6.727334642295054        0.258935231110516       11.627324999999999
      88    1       4.036400785377031        2.848287542215678        3.875775000000001
      89    1       2.690933856918022        4.142963697768257        1.291925000000001
      90    1       4.036400785377031        2.848287542215678        9.043475000000001
      91    1       2.690933856918023        4.142963697768258        6.459625000000001
      92    1       4.036400785377032        2.848287542215679       14.211175000000001
      93    1       2.690933856918023        4.142963697768259       11.627324999999999
      94    1       7.175823618448056        2.071481848884129        3.875775000000001
      95    1       5.830356689989047        3.366158004436709        1.291925000000001
      96    1       7.175823618448057        2.071481848884130        9.043475000000001
      97    1       5.830356689989047        3.366158004436710        6.459625000000001
      98    1       7.175823618448057        2.071481848884130       14.211175000000001
      99    1       5.830356689989048        3.366158004436711       11.627324999999999
     100    1      10.315246451519080        1.294676155552581        3.875775000000001
     101    1       8.969779523060073        2.589352311105160        1.291925000000001
     102    1      10.315246451519080        1.294676155552581        9.043475000000001
     103    1       8.969779523060073        2.589352311105161        6.459625000000001
     104    1      10.315246451519080        1.294676155552582       14.211175000000001
     105    1       8.969779523060073        2.589352311105162       11.627324999999999
     106    1      12.109202356131094        1.812546617773612        1.291925000000001
     107    1      12.109202356131094        1.812546617773613        6.459625000000001
     108    1      12.109202356131094        1.812546617773614       11.627324999999999
     109    1       6.278845666142050        5.178704622210327        3.875775000000001
     110    1       4.933378737683040        6.473380777762903        1.291925000000001
     111    1       6.278845666142050        5.178704622210327        9.043475000000001
     112    1       4.933378737683041        6.473380777762904        6.459625000000001
     113    1       6.278845666142050        5.178704622210327       14.211175000000001
     114    1       4.933378737683041        6.473380777762904       11.627324999999999
     115    1       9.418268499213076        4.401898928878777        3.875775000000001
     116    1       8.072801570754065        5.696575084431355        1.291925000000001
     117    1       9.418268499213076        4.401898928878777        9.043475000000001
     118    1       8.072801570754065        5.696575084431355        6.459625000000001
     119    1       9.418268499213076        4.401898928878778       14.211175000000001
     120    1       8.072801570754065        5.696575084431356       11.627324999999999
     121    1      12.557691332284099        3.625093235547227        3.875775000000001
     122    1      11.212224403825088        4.919769391099805        1.291925000000001
     123    1      12.557691332284099        3.625093235547227        9.043475000000001
     124    1      11.212224403825088        4.919769391099807        6.459625000000001
     125    1      12.557691332284099        3.625093235547228       14.211175000000001
     126    1      11.212224403825088        4.919769391099807       11.627324999999999
     127    1       5.381867713836044        8.285927395536518        3.875775000000001
     128    1       5.381867713836044        8.285927395536520        9.043475000000001
     129    1       5.381867713836045        8.285927395536520       14.211175000000001
     130    1       8.521290546907068        7.509121702204968        3.875775000000001
     131    1       7.175823618448058        8.803797857757548        1.291925000000001
     132    1       8.521290546907068        7.509121702204970        9.043475000000001
     133    1       7.175823618448058        8.803797857757548        6.459625000000001
     134    1       8.521290546907068        7.509121702204970       14.211175000000001
     135    1       7.175823618448060        8.803797857757548       11.627324999999999
     136    1      11.660713379978096        6.732316008873421        3.875775000000001
     137    1      10.315246451519082        8.026992164426002        1.291925000000001
     138    1      11.660713379978096        6.732316008873423        9.043475000000001
     139    1      10.315246451519082        8.026992164426002        6.459625000000001
     140    1      11.660713379978096        6.732316008873423       14.211175000000001
     141    1      10.315246451519082        8.026992164426003       11.627324999999999
     142    1      14.800136213049122        5.955510315541872        3.875775000000001
     143    1      13.454669284590105        7.250186471094450        1.291925000000001
     144    1      14.800136213049122        5.955510315541874        9.043475000000001
     145    1      13.454669284590105        7.250186471094450        6.459625000000001
     146    1      14.800136213049122        5.955510315541874       14.211175000000001
     147    1      13.454669284590107        7.250186471094452       11.627324999999999
     148    1      10.763735427672088        9.839538782199611        3.875775000000001
     149    1      10.763735427672088        9.839538782199613        9.043475000000001
     150    1      10.763735427672088        9.839538782199613       14.211175000000001
     151    1      13.903158260743114        9.062733088868065        3.875775000000001
     152    1      13.903158260743114        9.062733088868066        9.043475000000001
     153    1      13.903158260743114        9.062733088868066       14.211175000000001
     154    1      15.697114165355122        9.580603551089100        1.291925000000001
     155    1      15.697114165355122        9.580603551089100        6.459625000000001
     156    1      15.697114165355124        9.580603551089101       11.627324999999999
