ITEM: TIMESTEP
0
ITEM: NUMBER OF ATOMS
156
ITEM: BOX BOUNDS xy xz yz pp pp pp
0.0000000000000000e+000 1.7491070069989053e+001 5.8303566899890473e+000
0.0000000000000000e+000 1.0098474013000004e+001 2.9999999999999998e-015
0.0000000000000000e+000 3.1006200000000000e+001 2.9999999999999998e-015
ITEM: ATOMS id type x y z c_peatom c_datom[1] c_datom[2] c_datom[3] c_datom[4] c_voratom[1] c_voratom[2] 
    1     1         1.7939559046         0.5178704622        19.3788750000        -6.6347091851         0.0000000000         0.0000000000         0.0000000000         0.0000000000        23.4047937543    14 
    2     1         1.7939559046         0.5178704622        24.5465750000        -6.6347091851         0.0000000000         0.0000000000         0.0000000000         0.0000000000        23.4047937543    14 
    3     1         1.7939559046         0.5178704622        29.7142750000        -6.6347091851         0.0000000000         0.0000000000         0.0000000000         0.0000000000        23.4047937543    14 
    4     1         3.5879118092         1.0357409244        16.7950250000        -6.6347091851         0.0000000000        -0.0000000000         0.0000000000         0.0000000000        23.4047937546    14 
    5     1         3.5879118092         1.0357409244        21.9627250000        -6.6347091851         0.0000000000         0.0000000000         0.0000000000         0.0000000000        23.4047937546    14 
    6     1         3.5879118092         1.0357409244        27.1304250000        -6.6347091851         0.0000000000         0.0000000000         0.0000000000         0.0000000000        23.4047937546    14 
    7     1         6.7273346423         0.2589352311        16.7950250000        -6.6347091851         0.0000000000         0.0000000000         0.0000000000         0.0000000000        23.4047937542    14 
    8     1         6.7273346423         0.2589352311        21.9627250000        -6.6347091851         0.0000000000         0.0000000000         0.0000000000         0.0000000000        23.4047937542    14 
    9     1         6.7273346423         0.2589352311        27.1304250000        -6.6347091851        -0.0000000000         0.0000000000         0.0000000000         0.0000000000        23.4047937542    14 
   10     1         4.0364007854         2.8482875422        19.3788750000        -6.6347091852         0.0000000000         0.0000000000         0.0000000000         0.0000000000        23.4047937554    12 
   11     1         2.6909338569         4.1429636978        16.7950250000        -6.6347091852         0.0000000000         0.0000000000         0.0000000000         0.0000000000        23.4047937560    14 
   12     1         4.0364007854         2.8482875422        24.5465750000        -6.6347091852         0.0000000000         0.0000000000         0.0000000000         0.0000000000        23.4047937554    12 
   13     1         2.6909338569         4.1429636978        21.9627250000        -6.6347091852         0.0000000000         0.0000000000         0.0000000000         0.0000000000        23.4047937560    14 
   14     1         4.0364007854         2.8482875422        29.7142750000        -6.6347091852         0.0000000000         0.0000000000         0.0000000000         0.0000000000        23.4047937554    12 
   15     1         2.6909338569         4.1429636978        27.1304250000        -6.6347091852         0.0000000000         0.0000000000         0.0000000000         0.0000000000        23.4047937560    14 
   16     1         7.1758236184         2.0714818489        19.3788750000        -6.6347091852         0.0000000000         0.0000000000         0.0000000000         0.0000000000        23.4047937550    12 
   17     1         5.8303566900         3.3661580044        16.7950250000        -6.6347091852         0.0000000000         0.0000000000         0.0000000000         0.0000000000        23.4047937559    14 
   18     1         7.1758236184         2.0714818489        24.5465750000        -6.6347091852         0.0000000000         0.0000000000         0.0000000000         0.0000000000        23.4047937550    12 
   19     1         5.8303566900         3.3661580044        21.9627250000        -6.6347091852         0.0000000000         0.0000000000         0.0000000000         0.0000000000        23.4047937559    14 
   20     1         7.1758236184         2.0714818489        29.7142750000        -6.6347091852         0.0000000000         0.0000000000         0.0000000000         0.0000000000        23.4047937550    12 
   21     1         5.8303566900         3.3661580044        27.1304250000        -6.6347091852         0.0000000000         0.0000000000         0.0000000000         0.0000000000        23.4047937559    14 
   22     1        10.3152464515         1.2946761556        19.3788750000        -6.6347091851         0.0000000000        -0.0000000000         0.0000000000         0.0000000000        23.4047937543    12 
   23     1         8.9697795231         2.5893523111        16.7950250000        -6.6347091852         0.0000000000         0.0000000000         0.0000000000         0.0000000000        23.4047937554    14 
   24     1        10.3152464515         1.2946761556        24.5465750000        -6.6347091851         0.0000000000         0.0000000000         0.0000000000         0.0000000000        23.4047937543    12 
   25     1         8.9697795231         2.5893523111        21.9627250000        -6.6347091852         0.0000000000         0.0000000000         0.0000000000         0.0000000000        23.4047937554    14 
   26     1        10.3152464515         1.2946761556        29.7142750000        -6.6347091851         0.0000000000         0.0000000000         0.0000000000         0.0000000000        23.4047937543    12 
   27     1         8.9697795231         2.5893523111        27.1304250000        -6.6347091852         0.0000000000         0.0000000000         0.0000000000         0.0000000000        23.4047937554    14 
   28     1        12.1092023561         1.8125466178        16.7950250000        -6.6347091852         0.0000000000        -0.0000000000         0.0000000000         0.0000000000        23.4047937551    14 
   29     1        12.1092023561         1.8125466178        21.9627250000        -6.6347091852         0.0000000000         0.0000000000         0.0000000000         0.0000000000        23.4047937551    14 
   30     1        12.1092023561         1.8125466178        27.1304250000        -6.6347091852         0.0000000000         0.0000000000         0.0000000000         0.0000000000        23.4047937551    14 
   31     1         6.2788456661         5.1787046222        19.3788750000        -6.6347091852         0.0000000000         0.0000000000         0.0000000000         0.0000000000        23.4047937560    12 
   32     1         4.9333787377         6.4733807778        16.7950250000        -6.6347091852         0.0000000000         0.0000000000         0.0000000000         0.0000000000        23.4047937560    12 
   33     1         6.2788456661         5.1787046222        24.5465750000        -6.6347091852         0.0000000000         0.0000000000         0.0000000000         0.0000000000        23.4047937560    12 
   34     1         4.9333787377         6.4733807778        21.9627250000        -6.6347091852         0.0000000000         0.0000000000         0.0000000000         0.0000000000        23.4047937560    12 
   35     1         6.2788456661         5.1787046222        29.7142750000        -6.6347091852        -0.0000000000        -0.0000000000         0.0000000000         0.0000000000        23.4047937560    12 
   36     1         4.9333787377         6.4733807778        27.1304250000        -6.6347091852         0.0000000000         0.0000000000         0.0000000000         0.0000000000        23.4047937560    12 
   37     1         9.4182684992         4.4018989289        19.3788750000        -6.6347091852         0.0000000000         0.0000000000         0.0000000000         0.0000000000        23.4047937559    12 
   38     1         8.0728015708         5.6965750844        16.7950250000        -6.6347091852         0.0000000000         0.0000000000         0.0000000000         0.0000000000        23.4047937559    12 
   39     1         9.4182684992         4.4018989289        24.5465750000        -6.6347091852         0.0000000000         0.0000000000         0.0000000000         0.0000000000        23.4047937559    12 
   40     1         8.0728015708         5.6965750844        21.9627250000        -6.6347091852         0.0000000000        -0.0000000000         0.0000000000         0.0000000000        23.4047937559    12 
   41     1         9.4182684992         4.4018989289        29.7142750000        -6.6347091852         0.0000000000         0.0000000000         0.0000000000         0.0000000000        23.4047937559    12 
   42     1         8.0728015708         5.6965750844        27.1304250000        -6.6347091852         0.0000000000         0.0000000000         0.0000000000         0.0000000000        23.4047937559    12 
   43     1        12.5576913323         3.6250932355        19.3788750000        -6.6347091852         0.0000000000         0.0000000000         0.0000000000         0.0000000000        23.4047937560    12 
   44     1        11.2122244038         4.9197693911        16.7950250000        -6.6347091852         0.0000000000         0.0000000000         0.0000000000         0.0000000000        23.4047937560    12 
   45     1        12.5576913323         3.6250932355        24.5465750000        -6.6347091852         0.0000000000         0.0000000000         0.0000000000         0.0000000000        23.4047937560    12 
   46     1        11.2122244038         4.9197693911        21.9627250000        -6.6347091852        -0.0000000000        -0.0000000000         0.0000000000         0.0000000000        23.4047937560    12 
   47     1        12.5576913323         3.6250932355        29.7142750000        -6.6347091852         0.0000000000         0.0000000000         0.0000000000         0.0000000000        23.4047937560    12 
   48     1        11.2122244038         4.9197693911        27.1304250000        -6.6347091852         0.0000000000         0.0000000000         0.0000000000         0.0000000000        23.4047937560    12 
   49     1         5.3818677138         8.2859273955        19.3788750000        -6.6347091852         0.0000000000         0.0000000000         0.0000000000         0.0000000000        23.4047937551    14 
   50     1         5.3818677138         8.2859273955        24.5465750000        -6.6347091852         0.0000000000         0.0000000000         0.0000000000         0.0000000000        23.4047937551    14 
   51     1         5.3818677138         8.2859273955        29.7142750000        -6.6347091852         0.0000000000         0.0000000000         0.0000000000         0.0000000000        23.4047937551    14 
   52     1         8.5212905469         7.5091217022        19.3788750000        -6.6347091852         0.0000000000         0.0000000000         0.0000000000         0.0000000000        23.4047937554    14 
   53     1         7.1758236184         8.8037978578        16.7950250000        -6.6347091851         0.0000000000         0.0000000000         0.0000000000         0.0000000000        23.4047937543    12 
   54     1         8.5212905469         7.5091217022        24.5465750000        -6.6347091852        -0.0000000000         0.0000000000         0.0000000000         0.0000000000        23.4047937554    14 
   55     1         7.1758236184         8.8037978578        21.9627250000        -6.6347091851         0.0000000000         0.0000000000         0.0000000000         0.0000000000        23.4047937543    12 
   56     1         8.5212905469         7.5091217022        29.7142750000        -6.6347091852         0.0000000000         0.0000000000         0.0000000000         0.0000000000        23.4047937554    14 
   57     1         7.1758236184         8.8037978578        27.1304250000        -6.6347091851         0.0000000000         0.0000000000         0.0000000000         0.0000000000        23.4047937543    12 
   58     1        11.6607133800         6.7323160089        19.3788750000        -6.6347091852        -0.0000000000        -0.0000000000         0.0000000000         0.0000000000        23.4047937559    14 
   59     1        10.3152464515         8.0269921644        16.7950250000        -6.6347091852         0.0000000000         0.0000000000         0.0000000000         0.0000000000        23.4047937550    12 
   60     1        11.6607133800         6.7323160089        24.5465750000        -6.6347091852         0.0000000000         0.0000000000         0.0000000000         0.0000000000        23.4047937559    14 
   61     1        10.3152464515         8.0269921644        21.9627250000        -6.6347091852         0.0000000000         0.0000000000         0.0000000000         0.0000000000        23.4047937550    12 
   62     1        11.6607133800         6.7323160089        29.7142750000        -6.6347091852         0.0000000000        -0.0000000000         0.0000000000         0.0000000000        23.4047937559    14 
   63     1        10.3152464515         8.0269921644        27.1304250000        -6.6347091852         0.0000000000         0.0000000000         0.0000000000         0.0000000000        23.4047937550    12 
   64     1        14.8001362130         5.9555103155        19.3788750000        -6.6347091852         0.0000000000        -0.0000000000         0.0000000000         0.0000000000        23.4047937560    14 
   65     1        13.4546692846         7.2501864711        16.7950250000        -6.6347091852         0.0000000000         0.0000000000         0.0000000000         0.0000000000        23.4047937554    12 
   66     1        14.8001362130         5.9555103155        24.5465750000        -6.6347091852         0.0000000000         0.0000000000         0.0000000000         0.0000000000        23.4047937560    14 
   67     1        13.4546692846         7.2501864711        21.9627250000        -6.6347091852         0.0000000000        -0.0000000000         0.0000000000         0.0000000000        23.4047937554    12 
   68     1        14.8001362130         5.9555103155        29.7142750000        -6.6347091852         0.0000000000        -0.0000000000         0.0000000000         0.0000000000        23.4047937560    14 
   69     1        13.4546692846         7.2501864711        27.1304250000        -6.6347091852         0.0000000000         0.0000000000         0.0000000000         0.0000000000        23.4047937554    12 
   70     1        10.7637354277         9.8395387822        19.3788750000        -6.6347091851         0.0000000000         0.0000000000         0.0000000000         0.0000000000        23.4047937542    14 
   71     1        10.7637354277         9.8395387822        24.5465750000        -6.6347091851         0.0000000000         0.0000000000         0.0000000000         0.0000000000        23.4047937542    14 
   72     1        10.7637354277         9.8395387822        29.7142750000        -6.6347091851         0.0000000000         0.0000000000         0.0000000000         0.0000000000        23.4047937542    14 
   73     1        13.9031582607         9.0627330889        19.3788750000        -6.6347091851         0.0000000000         0.0000000000         0.0000000000         0.0000000000        23.4047937546    14 
   74     1        13.9031582607         9.0627330889        24.5465750000        -6.6347091851         0.0000000000         0.0000000000         0.0000000000         0.0000000000        23.4047937546    14 
   75     1        13.9031582607         9.0627330889        29.7142750000        -6.6347091851         0.0000000000         0.0000000000         0.0000000000         0.0000000000        23.4047937546    14 
   76     1        15.6971141654         9.5806035511        16.7950250000        -6.6347091851         0.0000000000         0.0000000000         0.0000000000         0.0000000000        23.4047937543    14 
   77     1        15.6971141654         9.5806035511        21.9627250000        -6.6347091851         0.0000000000         0.0000000000         0.0000000000         0.0000000000        23.4047937543    14 
   78     1        15.6971141654         9.5806035511        27.1304250000        -6.6347091851         0.0000000000         0.0000000000         0.0000000000         0.0000000000        23.4047937543    14 
   79     1         1.7939559046         0.5178704622         3.8757750000        -6.6347091851         0.0000000000         0.0000000000         0.0000000000         0.0000000000        23.4047937543    14 
   80     1         1.7939559046         0.5178704622         9.0434750000        -6.6347091851         0.0000000000         0.0000000000         0.0000000000         0.0000000000        23.4047937543    14 
   81     1         1.7939559046         0.5178704622        14.2111750000        -6.6347091851         0.0000000000        -0.0000000000         0.0000000000         0.0000000000        23.4047937543    14 
   82     1         3.5879118092         1.0357409244         1.2919250000        -6.6347091851         0.0000000000         0.0000000000         0.0000000000         0.0000000000        23.4047937546    14 
   83     1         3.5879118092         1.0357409244         6.4596250000        -6.6347091851         0.0000000000         0.0000000000         0.0000000000         0.0000000000        23.4047937546    14 
   84     1         3.5879118092         1.0357409244        11.6273250000        -6.6347091851         0.0000000000         0.0000000000         0.0000000000         0.0000000000        23.4047937546    14 
   85     1         6.7273346423         0.2589352311         1.2919250000        -6.6347091851         0.0000000000         0.0000000000         0.0000000000         0.0000000000        23.4047937542    14 
   86     1         6.7273346423         0.2589352311         6.4596250000        -6.6347091851         0.0000000000         0.0000000000         0.0000000000         0.0000000000        23.4047937542    14 
   87     1         6.7273346423         0.2589352311        11.6273250000        -6.6347091851         0.0000000000         0.0000000000         0.0000000000         0.0000000000        23.4047937542    14 
   88     1         4.0364007854         2.8482875422         3.8757750000        -6.6347091852         0.0000000000         0.0000000000         0.0000000000         0.0000000000        23.4047937554    12 
   89     1         2.6909338569         4.1429636978         1.2919250000        -6.6347091852         0.0000000000         0.0000000000         0.0000000000         0.0000000000        23.4047937560    14 
   90     1         4.0364007854         2.8482875422         9.0434750000        -6.6347091852         0.0000000000         0.0000000000         0.0000000000         0.0000000000        23.4047937554    12 
   91     1         2.6909338569         4.1429636978         6.4596250000        -6.6347091852         0.0000000000         0.0000000000         0.0000000000         0.0000000000        23.4047937560    14 
   92     1         4.0364007854         2.8482875422        14.2111750000        -6.6347091852         0.0000000000         0.0000000000         0.0000000000         0.0000000000        23.4047937554    12 
   93     1         2.6909338569         4.1429636978        11.6273250000        -6.6347091852         0.0000000000         0.0000000000         0.0000000000         0.0000000000        23.4047937560    14 
   94     1         7.1758236184         2.0714818489         3.8757750000        -6.6347091852         0.0000000000         0.0000000000         0.0000000000         0.0000000000        23.4047937550    12 
   95     1         5.8303566900         3.3661580044         1.2919250000        -6.6347091852         0.0000000000         0.0000000000         0.0000000000         0.0000000000        23.4047937559    14 
   96     1         7.1758236184         2.0714818489         9.0434750000        -6.6347091852         0.0000000000         0.0000000000         0.0000000000         0.0000000000        23.4047937550    12 
   97     1         5.8303566900         3.3661580044         6.4596250000        -6.6347091852         0.0000000000         0.0000000000         0.0000000000         0.0000000000        23.4047937559    14 
   98     1         7.1758236184         2.0714818489        14.2111750000        -6.6347091852         0.0000000000         0.0000000000         0.0000000000         0.0000000000        23.4047937550    12 
   99     1         5.8303566900         3.3661580044        11.6273250000        -6.6347091852        -0.0000000000         0.0000000000         0.0000000000         0.0000000000        23.4047937559    14 
  100     1        10.3152464515         1.2946761556         3.8757750000        -6.6347091851         0.0000000000         0.0000000000         0.0000000000         0.0000000000        23.4047937543    12 
  101     1         8.9697795231         2.5893523111         1.2919250000        -6.6347091852         0.0000000000         0.0000000000         0.0000000000         0.0000000000        23.4047937554    14 
  102     1        10.3152464515         1.2946761556         9.0434750000        -6.6347091851         0.0000000000         0.0000000000         0.0000000000         0.0000000000        23.4047937543    12 
  103     1         8.9697795231         2.5893523111         6.4596250000        -6.6347091852         0.0000000000         0.0000000000         0.0000000000         0.0000000000        23.4047937554    14 
  104     1        10.3152464515         1.2946761556        14.2111750000        -6.6347091851         0.0000000000        -0.0000000000         0.0000000000         0.0000000000        23.4047937543    12 
  105     1         8.9697795231         2.5893523111        11.6273250000        -6.6347091852         0.0000000000         0.0000000000         0.0000000000         0.0000000000        23.4047937554    14 
  106     1        12.1092023561         1.8125466178         1.2919250000        -6.6347091852         0.0000000000         0.0000000000         0.0000000000         0.0000000000        23.4047937551    14 
  107     1        12.1092023561         1.8125466178         6.4596250000        -6.6347091852         0.0000000000         0.0000000000         0.0000000000         0.0000000000        23.4047937551    14 
  108     1        12.1092023561         1.8125466178        11.6273250000        -6.6347091852         0.0000000000         0.0000000000         0.0000000000         0.0000000000        23.4047937551    14 
  109     1         6.2788456661         5.1787046222         3.8757750000        -6.6347091852         0.0000000000         0.0000000000         0.0000000000         0.0000000000        23.4047937560    12 
  110     1         4.9333787377         6.4733807778         1.2919250000        -6.6347091852         0.0000000000         0.0000000000         0.0000000000         0.0000000000        23.4047937560    12 
  111     1         6.2788456661         5.1787046222         9.0434750000        -6.6347091852         0.0000000000         0.0000000000         0.0000000000         0.0000000000        23.4047937560    12 
  112     1         4.9333787377         6.4733807778         6.4596250000        -6.6347091852         0.0000000000         0.0000000000         0.0000000000         0.0000000000        23.4047937560    12 
  113     1         6.2788456661         5.1787046222        14.2111750000        -6.6347091852         0.0000000000         0.0000000000         0.0000000000         0.0000000000        23.4047937560    12 
  114     1         4.9333787377         6.4733807778        11.6273250000        -6.6347091852         0.0000000000         0.0000000000         0.0000000000         0.0000000000        23.4047937560    12 
  115     1         9.4182684992         4.4018989289         3.8757750000        -6.6347091852         0.0000000000         0.0000000000         0.0000000000         0.0000000000        23.4047937559    12 
  116     1         8.0728015708         5.6965750844         1.2919250000        -6.6347091852         0.0000000000         0.0000000000         0.0000000000         0.0000000000        23.4047937559    12 
  117     1         9.4182684992         4.4018989289         9.0434750000        -6.6347091852         0.0000000000         0.0000000000         0.0000000000         0.0000000000        23.4047937559    12 
  118     1         8.0728015708         5.6965750844         6.4596250000        -6.6347091852         0.0000000000         0.0000000000         0.0000000000         0.0000000000        23.4047937559    12 
  119     1         9.4182684992         4.4018989289        14.2111750000        -6.6347091852         0.0000000000         0.0000000000         0.0000000000         0.0000000000        23.4047937559    12 
  120     1         8.0728015708         5.6965750844        11.6273250000        -6.6347091852         0.0000000000         0.0000000000         0.0000000000         0.0000000000        23.4047937559    12 
  121     1        12.5576913323         3.6250932355         3.8757750000        -6.6347091852         0.0000000000         0.0000000000         0.0000000000         0.0000000000        23.4047937560    12 
  122     1        11.2122244038         4.9197693911         1.2919250000        -6.6347091852         0.0000000000         0.0000000000         0.0000000000         0.0000000000        23.4047937560    12 
  123     1        12.5576913323         3.6250932355         9.0434750000        -6.6347091852         0.0000000000         0.0000000000         0.0000000000         0.0000000000        23.4047937560    12 
  124     1        11.2122244038         4.9197693911         6.4596250000        -6.6347091852         0.0000000000         0.0000000000         0.0000000000         0.0000000000        23.4047937560    12 
  125     1        12.5576913323         3.6250932355        14.2111750000        -6.6347091852         0.0000000000         0.0000000000         0.0000000000         0.0000000000        23.4047937560    12 
  126     1        11.2122244038         4.9197693911        11.6273250000        -6.6347091852         0.0000000000         0.0000000000         0.0000000000         0.0000000000        23.4047937560    12 
  127     1         5.3818677138         8.2859273955         3.8757750000        -6.6347091852         0.0000000000         0.0000000000         0.0000000000         0.0000000000        23.4047937551    14 
  128     1         5.3818677138         8.2859273955         9.0434750000        -6.6347091852         0.0000000000        -0.0000000000         0.0000000000         0.0000000000        23.4047937551    14 
  129     1         5.3818677138         8.2859273955        14.2111750000        -6.6347091852         0.0000000000         0.0000000000         0.0000000000         0.0000000000        23.4047937551    14 
  130     1         8.5212905469         7.5091217022         3.8757750000        -6.6347091852         0.0000000000         0.0000000000         0.0000000000         0.0000000000        23.4047937554    14 
  131     1         7.1758236184         8.8037978578         1.2919250000        -6.6347091851         0.0000000000         0.0000000000         0.0000000000         0.0000000000        23.4047937543    12 
  132     1         8.5212905469         7.5091217022         9.0434750000        -6.6347091852         0.0000000000         0.0000000000         0.0000000000         0.0000000000        23.4047937554    14 
  133     1         7.1758236184         8.8037978578         6.4596250000        -6.6347091851         0.0000000000        -0.0000000000         0.0000000000         0.0000000000        23.4047937543    12 
  134     1         8.5212905469         7.5091217022        14.2111750000        -6.6347091852         0.0000000000         0.0000000000         0.0000000000         0.0000000000        23.4047937554    14 
  135     1         7.1758236184         8.8037978578        11.6273250000        -6.6347091851         0.0000000000         0.0000000000         0.0000000000         0.0000000000        23.4047937543    12 
  136     1        11.6607133800         6.7323160089         3.8757750000        -6.6347091852         0.0000000000         0.0000000000         0.0000000000         0.0000000000        23.4047937559    14 
  137     1        10.3152464515         8.0269921644         1.2919250000        -6.6347091852         0.0000000000         0.0000000000         0.0000000000         0.0000000000        23.4047937550    12 
  138     1        11.6607133800         6.7323160089         9.0434750000        -6.6347091852        -0.0000000000        -0.0000000000         0.0000000000         0.0000000000        23.4047937559    14 
  139     1        10.3152464515         8.0269921644         6.4596250000        -6.6347091852         0.0000000000         0.0000000000         0.0000000000         0.0000000000        23.4047937550    12 
  140     1        11.6607133800         6.7323160089        14.2111750000        -6.6347091852         0.0000000000         0.0000000000         0.0000000000         0.0000000000        23.4047937559    14 
  141     1        10.3152464515         8.0269921644        11.6273250000        -6.6347091852         0.0000000000         0.0000000000         0.0000000000         0.0000000000        23.4047937550    12 
  142     1        14.8001362130         5.9555103155         3.8757750000        -6.6347091852         0.0000000000         0.0000000000         0.0000000000         0.0000000000        23.4047937560    14 