ITEM: TIMESTEP
1
ITEM: NUMBER OF ATOMS
156
ITEM: BOX BOUNDS xy xz yz pp pp pp
0.0000000000000000e+000 1.7491070069989053e+001 5.8303566899890473e+000
0.0000000000000000e+000 1.0098474013000004e+001 2.9999999999999998e-015
0.0000000000000000e+000 3.1006200000000000e+001 2.9999999999999998e-015
ITEM: ATOMS id type x y z c_peatom c_datom[1] c_datom[2] c_datom[3] c_datom[4] c_voratom[1] c_voratom[2] 
    1     1         1.7939559046         0.5178704624        19.3788750000        -6.6347091852         0.0000000000         0.0000000001         0.0000000000         0.0000000001        23.4047937551    14 
    2     1         1.7939559046         0.5178704624        24.5465750000        -6.6347091852         0.0000000000         0.0000000001         0.0000000000         0.0000000001        23.4047937551    14 
    3     1         1.7939559046         0.5178704624        29.7142750000        -6.6347091852         0.0000000000         0.0000000001        -0.0000000000         0.0000000001        23.4047937551    14 
    4     1         3.5879118092         1.0357409246        16.7950250000        -6.6347091852        -0.0000000000         0.0000000001         0.0000000000         0.0000000001        23.4047937551    14 
    5     1         3.5879118092         1.0357409246        21.9627250000        -6.6347091852        -0.0000000000         0.0000000001         0.0000000000         0.0000000001        23.4047937551    14 
    6     1         3.5879118092         1.0357409246        27.1304250000        -6.6347091852        -0.0000000000         0.0000000001         0.0000000000         0.0000000001        23.4047937551    14 
    7     1         6.7273346423         0.2589352312        16.7950250000        -6.6347091852        -0.0000000000         0.0000000001         0.0000000000         0.0000000001        23.4047937551    14 
    8     1         6.7273346423         0.2589352312        21.9627250000        -6.6347091852        -0.0000000000         0.0000000001         0.0000000000         0.0000000001        23.4047937551    14 
    9     1         6.7273346423         0.2589352312        27.1304250000        -6.6347091852        -0.0000000000         0.0000000001         0.0000000000         0.0000000001        23.4047937551    14 
   10     1         4.0364007854         2.8482875423        19.3788750000        -6.6347091852        -0.0000000000         0.0000000001         0.0000000000         0.0000000001        23.4047937552    14 
   11     1         2.6909338569         4.1429636978        16.7950250000        -6.6347091852        -0.0000000000        -0.0000000000         0.0000000000         0.0000000000        23.4047937554    14 
   12     1         4.0364007854         2.8482875423        24.5465750000        -6.6347091852        -0.0000000000         0.0000000001         0.0000000000         0.0000000001        23.4047937552    14 
   13     1         2.6909338569         4.1429636978        21.9627250000        -6.6347091852        -0.0000000000        -0.0000000000         0.0000000000         0.0000000000        23.4047937554    14 
   14     1         4.0364007854         2.8482875423        29.7142750000        -6.6347091852        -0.0000000000         0.0000000001         0.0000000000         0.0000000001        23.4047937552    14 
   15     1         2.6909338569         4.1429636978        27.1304250000        -6.6347091852        -0.0000000000        -0.0000000000         0.0000000000         0.0000000000        23.4047937554    14 
   16     1         7.1758236185         2.0714818490        19.3788750000        -6.6347091852         0.0000000000         0.0000000001         0.0000000000         0.0000000001        23.4047937552    14 
   17     1         5.8303566900         3.3661580045        16.7950250000        -6.6347091852        -0.0000000000         0.0000000000         0.0000000000         0.0000000000        23.4047937554    14 
   18     1         7.1758236185         2.0714818490        24.5465750000        -6.6347091852         0.0000000000         0.0000000001         0.0000000000         0.0000000001        23.4047937552    14 
   19     1         5.8303566900         3.3661580045        21.9627250000        -6.6347091852        -0.0000000000         0.0000000000         0.0000000000         0.0000000000        23.4047937554    14 
   20     1         7.1758236185         2.0714818490        29.7142750000        -6.6347091852         0.0000000000         0.0000000001         0.0000000000         0.0000000001        23.4047937552    14 
   21     1         5.8303566900         3.3661580045        27.1304250000        -6.6347091852        -0.0000000000         0.0000000000         0.0000000000         0.0000000000        23.4047937554    14 
   22     1        10.3152464515         1.2946761557        19.3788750000        -6.6347091852         0.0000000000         0.0000000001         0.0000000000         0.0000000001        23.4047937552    14 
   23     1         8.9697795230         2.5893523112        16.7950250000        -6.6347091852        -0.0000000000         0.0000000001         0.0000000000         0.0000000001        23.4047937553    14 
   24     1        10.3152464515         1.2946761557        24.5465750000        -6.6347091852         0.0000000000         0.0000000001         0.0000000000         0.0000000001        23.4047937552    14 
   25     1         8.9697795230         2.5893523112        21.9627250000        -6.6347091852        -0.0000000000         0.0000000001         0.0000000000         0.0000000001        23.4047937553    14 
   26     1        10.3152464515         1.2946761557        29.7142750000        -6.6347091852         0.0000000000         0.0000000001         0.0000000000         0.0000000001        23.4047937552    14 
   27     1         8.9697795230         2.5893523112        27.1304250000        -6.6347091852        -0.0000000000         0.0000000001         0.0000000000         0.0000000001        23.4047937553    14 
   28     1        12.1092023562         1.8125466179        16.7950250000        -6.6347091852         0.0000000000         0.0000000001         0.0000000000         0.0000000001        23.4047937551    14 
   29     1        12.1092023562         1.8125466179        21.9627250000        -6.6347091852         0.0000000000         0.0000000001         0.0000000000         0.0000000001        23.4047937551    14 
   30     1        12.1092023562         1.8125466179        27.1304250000        -6.6347091852         0.0000000000         0.0000000001         0.0000000000         0.0000000001        23.4047937551    14 
   31     1         6.2788456661         5.1787046222        19.3788750000        -6.6347091852        -0.0000000000         0.0000000000         0.0000000000         0.0000000000        23.4047937555    14 
   32     1         4.9333787377         6.4733807778        16.7950250000        -6.6347091852        -0.0000000000        -0.0000000000         0.0000000000         0.0000000000        23.4047937553    14 
   33     1         6.2788456661         5.1787046222        24.5465750000        -6.6347091852        -0.0000000000         0.0000000000         0.0000000000         0.0000000000        23.4047937555    14 
   34     1         4.9333787377         6.4733807778        21.9627250000        -6.6347091852        -0.0000000000        -0.0000000000         0.0000000000         0.0000000000        23.4047937553    14 
   35     1         6.2788456661         5.1787046222        29.7142750000        -6.6347091852        -0.0000000000         0.0000000000         0.0000000000         0.0000000000        23.4047937555    14 
   36     1         4.9333787377         6.4733807778        27.1304250000        -6.6347091852        -0.0000000000        -0.0000000000         0.0000000000         0.0000000000        23.4047937553    14 
   37     1         9.4182684992         4.4018989289        19.3788750000        -6.6347091852         0.0000000000         0.0000000000        -0.0000000000         0.0000000000        23.4047937553    14 
   38     1         8.0728015707         5.6965750844        16.7950250000        -6.6347091852        -0.0000000000        -0.0000000000         0.0000000000         0.0000000000        23.4047937553    14 
   39     1         9.4182684992         4.4018989289        24.5465750000        -6.6347091852         0.0000000000         0.0000000000         0.0000000000         0.0000000000        23.4047937553    14 
   40     1         8.0728015707         5.6965750844        21.9627250000        -6.6347091852        -0.0000000000        -0.0000000000         0.0000000000         0.0000000000        23.4047937553    14 
   41     1         9.4182684992         4.4018989289        29.7142750000        -6.6347091852         0.0000000000         0.0000000000         0.0000000000         0.0000000000        23.4047937553    14 
   42     1         8.0728015707         5.6965750844        27.1304250000        -6.6347091852        -0.0000000000        -0.0000000000         0.0000000000         0.0000000000        23.4047937553    14 
   43     1        12.5576913323         3.6250932356        19.3788750000        -6.6347091852         0.0000000000         0.0000000000         0.0000000000         0.0000000000        23.4047937553    14 
   44     1        11.2122244038         4.9197693911        16.7950250000        -6.6347091852         0.0000000000        -0.0000000000         0.0000000000         0.0000000000        23.4047937555    14 
   45     1        12.5576913323         3.6250932356        24.5465750000        -6.6347091852         0.0000000000         0.0000000000         0.0000000000         0.0000000000        23.4047937553    14 
   46     1        11.2122244038         4.9197693911        21.9627250000        -6.6347091852         0.0000000000        -0.0000000000         0.0000000000         0.0000000000        23.4047937555    14 
   47     1        12.5576913323         3.6250932356        29.7142750000        -6.6347091852         0.0000000000         0.0000000000        -0.0000000000         0.0000000000        23.4047937553    14 
   48     1        11.2122244038         4.9197693911        27.1304250000        -6.6347091852         0.0000000000        -0.0000000000         0.0000000000         0.0000000000        23.4047937555    14 
   49     1         5.3818677138         8.2859273954        19.3788750000        -6.6347091852        -0.0000000000        -0.0000000001         0.0000000000         0.0000000001        23.4047937551    14 
   50     1         5.3818677138         8.2859273954        24.5465750000        -6.6347091852        -0.0000000000        -0.0000000001         0.0000000000         0.0000000001        23.4047937551    14 
   51     1         5.3818677138         8.2859273954        29.7142750000        -6.6347091852        -0.0000000000        -0.0000000001        -0.0000000000         0.0000000001        23.4047937551    14 
   52     1         8.5212905469         7.5091217021        19.3788750000        -6.6347091852         0.0000000000        -0.0000000001         0.0000000000         0.0000000001        23.4047937553    14 
   53     1         7.1758236184         8.8037978576        16.7950250000        -6.6347091852        -0.0000000000        -0.0000000001         0.0000000000         0.0000000001        23.4047937552    14 
   54     1         8.5212905469         7.5091217021        24.5465750000        -6.6347091852         0.0000000000        -0.0000000001         0.0000000000         0.0000000001        23.4047937553    14 
   55     1         7.1758236184         8.8037978576        21.9627250000        -6.6347091852        -0.0000000000        -0.0000000001         0.0000000000         0.0000000001        23.4047937552    14 
   56     1         8.5212905469         7.5091217021        29.7142750000        -6.6347091852         0.0000000000        -0.0000000001         0.0000000000         0.0000000001        23.4047937553    14 
   57     1         7.1758236184         8.8037978576        27.1304250000        -6.6347091852        -0.0000000000        -0.0000000001         0.0000000000         0.0000000001        23.4047937552    14 
   58     1        11.6607133800         6.7323160089        19.3788750000        -6.6347091852         0.0000000000        -0.0000000000         0.0000000000         0.0000000000        23.4047937554    14 
   59     1        10.3152464515         8.0269921643        16.7950250000        -6.6347091852        -0.0000000000        -0.0000000001         0.0000000000         0.0000000001        23.4047937552    14 
   60     1        11.6607133800         6.7323160089        24.5465750000        -6.6347091852         0.0000000000        -0.0000000000         0.0000000000         0.0000000000        23.4047937554    14 
   61     1        10.3152464515         8.0269921643        21.9627250000        -6.6347091852        -0.0000000000        -0.0000000001         0.0000000000         0.0000000001        23.4047937552    14 
   62     1        11.6607133800         6.7323160089        29.7142750000        -6.6347091852         0.0000000000        -0.0000000000         0.0000000000         0.0000000000        23.4047937554    14 
   63     1        10.3152464515         8.0269921643        27.1304250000        -6.6347091852        -0.0000000000        -0.0000000001         0.0000000000         0.0000000001        23.4047937552    14 
   64     1        14.8001362131         5.9555103155        19.3788750000        -6.6347091852         0.0000000000         0.0000000000         0.0000000000         0.0000000000        23.4047937554    14 
   65     1        13.4546692846         7.2501864710        16.7950250000        -6.6347091852         0.0000000000        -0.0000000001         0.0000000000         0.0000000001        23.4047937552    14 
   66     1        14.8001362131         5.9555103155        24.5465750000        -6.6347091852         0.0000000000         0.0000000000         0.0000000000         0.0000000000        23.4047937554    14 
   67     1        13.4546692846         7.2501864710        21.9627250000        -6.6347091852         0.0000000000        -0.0000000001         0.0000000000         0.0000000001        23.4047937552    14 
   68     1        14.8001362131         5.9555103155        29.7142750000        -6.6347091852         0.0000000000         0.0000000000        -0.0000000000         0.0000000000        23.4047937554    14 
   69     1        13.4546692846         7.2501864710        27.1304250000        -6.6347091852         0.0000000000        -0.0000000001         0.0000000000         0.0000000001        23.4047937552    14 
   70     1        10.7637354277         9.8395387821        19.3788750000        -6.6347091852         0.0000000000        -0.0000000001         0.0000000000         0.0000000001        23.4047937551    14 
   71     1        10.7637354277         9.8395387821        24.5465750000        -6.6347091852         0.0000000000        -0.0000000001         0.0000000000         0.0000000001        23.4047937551    14 
   72     1        10.7637354277         9.8395387821        29.7142750000        -6.6347091852         0.0000000000        -0.0000000001         0.0000000000         0.0000000001        23.4047937551    14 
   73     1        13.9031582608         9.0627330888        19.3788750000        -6.6347091852         0.0000000000        -0.0000000001         0.0000000000         0.0000000001        23.4047937551    14 
   74     1        13.9031582608         9.0627330888        24.5465750000        -6.6347091852         0.0000000000        -0.0000000001         0.0000000000         0.0000000001        23.4047937551    14 
   75     1        13.9031582608         9.0627330888        29.7142750000        -6.6347091852         0.0000000000        -0.0000000001         0.0000000000         0.0000000001        23.4047937551    14 
   76     1        15.6971141654         9.5806035510        16.7950250000        -6.6347091852        -0.0000000000        -0.0000000001         0.0000000000         0.0000000001        23.4047937551    14 
   77     1        15.6971141654         9.5806035510        21.9627250000        -6.6347091852        -0.0000000000        -0.0000000001         0.0000000000         0.0000000001        23.4047937551    14 
   78     1        15.6971141654         9.5806035510        27.1304250000        -6.6347091852        -0.0000000000        -0.0000000001         0.0000000000         0.0000000001        23.4047937551    14 
   79     1         1.7939559046         0.5178704624         3.8757750000        -6.6347091852         0.0000000000         0.0000000001         0.0000000000         0.0000000001        23.4047937551    14 
   80     1         1.7939559046         0.5178704624         9.0434750000        -6.6347091852         0.0000000000         0.0000000001        -0.0000000000         0.0000000001        23.4047937551    14 
   81     1         1.7939559046         0.5178704624        14.2111750000        -6.6347091852         0.0000000000         0.0000000001        -0.0000000000         0.0000000001        23.4047937551    14 
   82     1         3.5879118092         1.0357409246         1.2919250000        -6.6347091852        -0.0000000000         0.0000000001         0.0000000000         0.0000000001        23.4047937551    14 
   83     1         3.5879118092         1.0357409246         6.4596250000        -6.6347091852        -0.0000000000         0.0000000001         0.0000000000         0.0000000001        23.4047937551    14 
   84     1         3.5879118092         1.0357409246        11.6273250000        -6.6347091852        -0.0000000000         0.0000000001         0.0000000000         0.0000000001        23.4047937551    14 
   85     1         6.7273346423         0.2589352312         1.2919250000        -6.6347091852        -0.0000000000         0.0000000001         0.0000000000         0.0000000001        23.4047937551    14 
   86     1         6.7273346423         0.2589352312         6.4596250000        -6.6347091852        -0.0000000000         0.0000000001         0.0000000000         0.0000000001        23.4047937551    14 
   87     1         6.7273346423         0.2589352312        11.6273250000        -6.6347091852        -0.0000000000         0.0000000001         0.0000000000         0.0000000001        23.4047937551    14 
   88     1         4.0364007854         2.8482875423         3.8757750000        -6.6347091852        -0.0000000000         0.0000000001         0.0000000000         0.0000000001        23.4047937552    14 
   89     1         2.6909338569         4.1429636978         1.2919250000        -6.6347091852        -0.0000000000        -0.0000000000         0.0000000000         0.0000000000        23.4047937554    14 
   90     1         4.0364007854         2.8482875423         9.0434750000        -6.6347091852        -0.0000000000         0.0000000001        -0.0000000000         0.0000000001        23.4047937552    14 
   91     1         2.6909338569         4.1429636978         6.4596250000        -6.6347091852        -0.0000000000        -0.0000000000         0.0000000000         0.0000000000        23.4047937554    14 
   92     1         4.0364007854         2.8482875423        14.2111750000        -6.6347091852        -0.0000000000         0.0000000001        -0.0000000000         0.0000000001        23.4047937552    14 
   93     1         2.6909338569         4.1429636978        11.6273250000        -6.6347091852        -0.0000000000        -0.0000000000         0.0000000000         0.0000000000        23.4047937554    14 
   94     1         7.1758236185         2.0714818490         3.8757750000        -6.6347091852         0.0000000000         0.0000000001         0.0000000000         0.0000000001        23.4047937552    14 
   95     1         5.8303566900         3.3661580045         1.2919250000        -6.6347091852        -0.0000000000         0.0000000000         0.0000000000         0.0000000000        23.4047937554    14 
   96     1         7.1758236185         2.0714818490         9.0434750000        -6.6347091852         0.0000000000         0.0000000001         0.0000000000         0.0000000001        23.4047937552    14 
   97     1         5.8303566900         3.3661580045         6.4596250000        -6.6347091852        -0.0000000000         0.0000000000         0.0000000000         0.0000000000        23.4047937554    14 
   98     1         7.1758236185         2.0714818490        14.2111750000        -6.6347091852         0.0000000000         0.0000000001        -0.0000000000         0.0000000001        23.4047937552    14 
   99     1         5.8303566900         3.3661580045        11.6273250000        -6.6347091852        -0.0000000000         0.0000000000         0.0000000000         0.0000000000        23.4047937554    14 
  100     1        10.3152464515         1.2946761557         3.8757750000        -6.6347091852         0.0000000000         0.0000000001         0.0000000000         0.0000000001        23.4047937552    14 
  101     1         8.9697795230         2.5893523112         1.2919250000        -6.6347091852        -0.0000000000         0.0000000001         0.0000000000         0.0000000001        23.4047937553    14 
  102     1        10.3152464515         1.2946761557         9.0434750000        -6.6347091852         0.0000000000         0.0000000001        -0.0000000000         0.0000000001        23.4047937552    14 
  103     1         8.9697795230         2.5893523112         6.4596250000        -6.6347091852        -0.0000000000         0.0000000001         0.0000000000         0.0000000001        23.4047937553    14 
  104     1        10.3152464515         1.2946761557        14.2111750000        -6.6347091852         0.0000000000         0.0000000001        -0.0000000000         0.0000000001        23.4047937552    14 
  105     1         8.9697795230         2.5893523112        11.6273250000        -6.6347091852        -0.0000000000         0.0000000001         0.0000000000         0.0000000001        23.4047937553    14 
  106     1        12.1092023562         1.8125466179         1.2919250000        -6.6347091852         0.0000000000         0.0000000001         0.0000000000         0.0000000001        23.4047937551    14 
  107     1        12.1092023562         1.8125466179         6.4596250000        -6.6347091852         0.0000000000         0.0000000001         0.0000000000         0.0000000001        23.4047937551    14 
  108     1        12.1092023562         1.8125466179        11.6273250000        -6.6347091852         0.0000000000         0.0000000001         0.0000000000         0.0000000001        23.4047937551    14 
  109     1         6.2788456661         5.1787046222         3.8757750000        -6.6347091852        -0.0000000000         0.0000000000        -0.0000000000         0.0000000000        23.4047937555    14 
  110     1         4.9333787377         6.4733807778         1.2919250000        -6.6347091852        -0.0000000000        -0.0000000000         0.0000000000         0.0000000000        23.4047937553    14 
  111     1         6.2788456661         5.1787046222         9.0434750000        -6.6347091852        -0.0000000000         0.0000000000         0.0000000000         0.0000000000        23.4047937555    14 
  112     1         4.9333787377         6.4733807778         6.4596250000        -6.6347091852        -0.0000000000        -0.0000000000         0.0000000000         0.0000000000        23.4047937553    14 
  113     1         6.2788456661         5.1787046222        14.2111750000        -6.6347091852        -0.0000000000         0.0000000000        -0.0000000000         0.0000000000        23.4047937555    14 
  114     1         4.9333787377         6.4733807778        11.6273250000        -6.6347091852        -0.0000000000        -0.0000000000         0.0000000000         0.0000000000        23.4047937553    14 
  115     1         9.4182684992         4.4018989289         3.8757750000        -6.6347091852         0.0000000000         0.0000000000         0.0000000000         0.0000000000        23.4047937553    14 
  116     1         8.0728015707         5.6965750844         1.2919250000        -6.6347091852        -0.0000000000        -0.0000000000         0.0000000000         0.0000000000        23.4047937553    14 
  117     1         9.4182684992         4.4018989289         9.0434750000        -6.6347091852         0.0000000000         0.0000000000         0.0000000000         0.0000000000        23.4047937553    14 
  118     1         8.0728015707         5.6965750844         6.4596250000        -6.6347091852        -0.0000000000        -0.0000000000         0.0000000000         0.0000000000        23.4047937553    14 
  119     1         9.4182684992         4.4018989289        14.2111750000        -6.6347091852         0.0000000000         0.0000000000        -0.0000000000         0.0000000000        23.4047937553    14 
  120     1         8.0728015707         5.6965750844        11.6273250000        -6.6347091852        -0.0000000000        -0.0000000000         0.0000000000         0.0000000000        23.4047937553    14 
  121     1        12.5576913323         3.6250932356         3.8757750000        -6.6347091852         0.0000000000         0.0000000000         0.0000000000         0.0000000000        23.4047937553    14 
  122     1        11.2122244038         4.9197693911         1.2919250000        -6.6347091852         0.0000000000        -0.0000000000         0.0000000000         0.0000000000        23.4047937555    14 
  123     1        12.5576913323         3.6250932356         9.0434750000        -6.6347091852         0.0000000000         0.0000000000        -0.0000000000         0.0000000000        23.4047937553    14 
  124     1        11.2122244038         4.9197693911         6.4596250000        -6.6347091852         0.0000000000        -0.0000000000         0.0000000000         0.0000000000        23.4047937555    14 
  125     1        12.5576913323         3.6250932356        14.2111750000        -6.6347091852         0.0000000000         0.0000000000         0.0000000000         0.0000000000        23.4047937553    14 
  126     1        11.2122244038         4.9197693911        11.6273250000        -6.6347091852         0.0000000000        -0.0000000000         0.0000000000         0.0000000000        23.4047937555    14 
  127     1         5.3818677138         8.2859273954         3.8757750000        -6.6347091852        -0.0000000000        -0.0000000001        -0.0000000000         0.0000000001        23.4047937551    14 
  128     1         5.3818677138         8.2859273954         9.0434750000        -6.6347091852        -0.0000000000        -0.0000000001         0.0000000000         0.0000000001        23.4047937551    14 
  129     1         5.3818677138         8.2859273954        14.2111750000        -6.6347091852        -0.0000000000        -0.0000000001        -0.0000000000         0.0000000001        23.4047937551    14 
  130     1         8.5212905469         7.5091217021         3.8757750000        -6.6347091852         0.0000000000        -0.0000000001        -0.0000000000         0.0000000001        23.4047937553    14 
  131     1         7.1758236184         8.8037978576         1.2919250000        -6.6347091852        -0.0000000000        -0.0000000001         0.0000000000         0.0000000001        23.4047937552    14 
  132     1         8.5212905469         7.5091217021         9.0434750000        -6.6347091852         0.0000000000        -0.0000000001         0.0000000000         0.0000000001        23.4047937553    14 
  133     1         7.1758236184         8.8037978576         6.4596250000        -6.6347091852        -0.0000000000        -0.0000000001         0.0000000000         0.0000000001        23.4047937552    14 
  134     1         8.5212905469         7.5091217021        14.2111750000        -6.6347091852         0.0000000000        -0.0000000001        -0.0000000000         0.0000000001        23.4047937553    14 
  135     1         7.1758236184         8.8037978576        11.6273250000        -6.6347091852        -0.0000000000        -0.0000000001         0.0000000000         0.0000000001        23.4047937552    14 
  136     1        11.6607133800         6.7323160089         3.8757750000        -6.6347091852         0.0000000000        -0.0000000000        -0.0000000000         0.0000000000        23.4047937554    14 
  137     1        10.3152464515         8.0269921643         1.2919250000        -6.6347091852        -0.0000000000        -0.0000000001         0.0000000000         0.0000000001        23.4047937552    14 
  138     1        11.6607133800         6.7323160089         9.0434750000        -6.6347091852         0.0000000000        -0.0000000000         0.0000000000         0.0000000000        23.4047937554    14 
  139     1        10.3152464515         8.0269921643         6.4596250000        -6.6347091852        -0.0000000000        -0.0000000001         0.0000000000         0.0000000001        23.4047937552    14 
  140     1        11.6607133800         6.7323160089        14.2111750000        -6.6347091852         0.0000000000        -0.0000000000        -0.0000000000         0.0000000000        23.4047937554    14 
  141     1        10.3152464515         8.0269921643        11.6273250000        -6.6347091852        -0.0000000000        -0.0000000001         0.0000000000         0.0000000001        23.4047937552    14 
  142     1        14.8001362131         5.9555103155         3.8757750000        -6.6347091852         0.0000000000         0.0000000000         0.0000000000         0.0000000000        23.4047937554    14 