Header

104 atoms
1 atom types

0.0    5.167700000 xlo xhi
0.0   11.660713380 ylo yhi
0.0   40.633896053 zlo zhi

0.000000000000001        5.167700000000005        34.982140139934280       xy xz yz

Atoms

       1    1       6.459625000000004       19.285025974579153       20.850016449778760
       2    1       3.875775000000004       21.078981879191169       21.381252236540334
       3    1       3.875775000000004       24.218404712262195       20.583608201334997
       4    1       6.459625000000004       21.527470855344170       23.218663180371706
       5    1       3.875775000000005       31.842717306863250       24.518036408694289
       6    1       6.459625000000004       24.666893688415197       22.435001912651234
       7    1       3.875775000000004       23.321426759956186       23.739101629127955
       8    1       6.459625000000004       27.806316521486220       21.645816697210453
       9    1       3.875775000000004       26.460849593027209       22.957921117017531
      10    1       3.875775000000004       29.600272426098229       22.172654969331038
      11    1       6.459625000000004       23.769915736109187       25.554980202086796
      12    1       3.875775000000005       34.085162187628271       26.850143810374714
      13    1       6.459625000000004       26.909338569180218       24.777394270977688
      14    1       3.875775000000004       25.563871640721207       26.073121565847064
      15    1       6.459625000000004       30.048761402251237       23.998926662170572
      16    1       3.875775000000005       28.703294473792230       25.295847669873314
      17    1       6.459625000000005       34.533651163781279       28.662845185118098
      18    1       6.459625000000004       26.012360616874208       27.886003997381440
      19    1       3.875775000000006       36.327607068393291       29.180727867679465
      20    1       6.459625000000004       29.151783449945238       27.109121193375323
      21    1       3.875775000000005       27.806316521486220       28.403901020371190
      22    1       6.459625000000004       32.291206283016265       26.332148163476269
      23    1       3.875775000000005       30.945739354557247       27.627049353134034
      24    1       6.459625000000005       36.776096044546286       30.993300788210032
      25    1       6.459625000000004       28.254805497639229       30.216480412934072
      26    1       9.043475000000006       38.570051949158305       31.511176871452044
      27    1       6.459625000000005       31.394228330710249       29.439667208408721
      28    1       9.043475000000003       30.048761402251237       30.734363666926694
      29    1       3.875775000000006       33.188184235322268       29.957543291650737
      30    1       6.459625000000006       39.018540925311314       33.323794726726739
      31    1       9.043475000000006       37.673073996852295       34.618695916384496
      32    1       6.459625000000006       30.497250378404249       32.546943059489578
      33    1       9.043475000000004       29.151783449945231       33.841722886485449
      34    1       6.459625000000004       33.636673211475276       31.770116212181311
      35    1       9.043475000000004       32.291206283016258       33.064840082479336
      36    1       9.043475000000004       35.430629116087282       32.287998894742678
      37    1       6.459625000000007       41.260985806076327       35.654996409987454
      38    1       9.043475000000006       39.915518877617316       36.951917417690197
      39    1       6.459625000000005       32.739695259169267       34.877722514013705
      40    1       9.043475000000004       31.394228330710249       36.173449808883070
      41    1       6.459625000000005       35.879118092240290       34.100700269486047
      42    1       9.043475000000006       34.533651163781279       35.395863877773962
      43    1       6.459625000000007       40.364007853770332       38.778189110529730
      44    1       6.459625000000007       43.503430686841355       37.992922962843238
      45    1       9.043475000000008       42.157963758382330       39.305027382650302
      46    1       6.459625000000005       34.982140139934280       37.211742450732807
      47    1       9.043475000000006       33.636673211475269       38.515842167209527
      48    1       6.459625000000005       38.121562973005304       36.432807671166472
      49    1       9.043475000000006       36.776096044546300       37.732180899489059
      50    1       6.459625000000006       45.745875567606355       40.367235878525776
      51    1       6.459625000000007       37.224585020699294       39.569591843320438
      52    1       9.043475000000006       39.018540925311321       40.100827630082009
      53    1       1.291925000000000        4.933378737683035        0.266660174714734
      54    1       3.875775000000000        9.866757475366075        0.533068423158496
      55    1       1.291925000000000        8.072801570754057        1.064304209920077
      56    1       1.291925000000000       11.212224403825084        1.855706942710781
      57    1       3.875775000000000        1.345466928459013        1.328868670590196
      58    1       3.875775000000000        4.484889761530039        2.118053886030978
      59    1       1.291925000000000        2.690933856918019        2.640973090397274
      60    1       3.875775000000000        7.624312594601060        2.901715153751448
      61    1       1.291925000000000        5.830356689989040        3.422153602507696
      62    1       3.875775000000000       10.763735427672087        3.681978635550316
      63    1       1.291925000000000        8.969779523060067        4.201088382074038
      64    1       3.875775000000001       13.903158260743108        4.460446244357431
      65    1       1.291925000000001       12.109202356131094        4.978899643253060
      66    1       3.875775000000001        5.381867713836044        5.238032175466544
      67    1       1.291925000000002       15.248625189202114        5.756173539226805
      68    1       3.875775000000001        8.521290546907069        6.015200136856009
      69    1       1.291925000000001        6.727334642295052        6.533195783754461
      70    1       3.875775000000000       11.660713379978093        6.792173166755063
      71    1       1.291925000000001        9.866757475366077        7.310101326513775
      72    1       3.875775000000001       14.800136213049113        7.569055970761178
      73    1       1.291925000000002       13.006180308437100        8.086952993750936
      74    1       1.291925000000001       16.145603141508126        8.863779841059204
      75    1       3.875775000000002       17.939559046120138        8.345897158497838
      76    1       3.875775000000001        9.418268499213074        9.122719181788469
      77    1       1.291925000000003       19.285025974579153        9.640595265030477
      78    1       3.875775000000001       12.557691332284097        9.899532386313819
      79    1       6.459625000000001       10.763735427672085       10.417415640306439
      80    1       3.875775000000002       15.697114165355122       10.676352761589779
      81    1       6.459625000000001       13.903158260743110       11.194228844831787
      82    1       6.459625000000002       17.042581093814135       11.971050868122417
      83    1       3.875775000000003       18.836536998426148       11.453168185561051
      84    1       3.875775000000002       21.975959831497168       12.229995032869320
      85    1       6.459625000000003       20.182003926885159       12.747892055859078
      86    1       3.875775000000001       13.454669284590103       13.006846700106484
      87    1       6.459625000000000       11.660713379978093       13.524774859865191
      88    1       3.875775000000002       16.594092117661130       13.783752242865795
      89    1       6.459625000000001       14.800136213049116       14.301747889764247
      90    1       3.875775000000003       19.733514950732154       14.560774487393450
      91    1       6.459625000000001       17.939559046120138       15.078915851153708
      92    1       3.875775000000003       22.872937783803177       15.338048383367198
      93    1       6.459625000000003       21.078981879191165       15.856501782262818
      94    1       3.875775000000002       14.351647236896111       16.115859644546216
      95    1       6.459625000000004       24.218404712262188       16.634969391069937
      96    1       3.875775000000002       17.491070069967137       16.894794424112558
      97    1       6.459625000000002       15.697114165355126       17.415232872868806
      98    1       3.875775000000003       20.630492903038157       17.675974936222975
      99    1       6.459625000000002       18.836536998426151       18.198894140589278
     100    1       6.459625000000004       21.975959831497175       18.988079356030056
     101    1       3.875775000000004       23.769915736109184       18.461241083909471
     102    1       3.875775000000004       26.909338569180210       19.252643816700171
     103    1       6.459625000000004       25.115382664568195       19.783879603461759
     104    1       3.875775000000003       18.388048022273146       20.050287851905523
