ITEM: TIMESTEP
0
ITEM: NUMBER OF ATOMS
104
ITEM: BOX BOUNDS xy xz yz pp pp pp
0.0000000000000000e+000 1.0335400000000007e+001 1.0000000000000001e-015
0.0000000000000000e+000 4.6642853519934278e+001 5.1677000000000053e+000
0.0000000000000000e+000 4.0633896053000001e+001 3.4982140139934280e+001
ITEM: ATOMS id type x y z c_peatom c_datom[1] c_datom[2] c_datom[3] c_datom[4] c_voratom[1] c_voratom[2] 
    1     1         6.4596250000        19.2850259746        20.8500164498        -6.1786303790         0.0000000000         0.0000000000         0.0000000000         0.0000000000        22.1285098552    13 
    2     1         3.8757750000        21.0789818792        21.3812522365        -6.6182865558         0.0000000000         0.0000000000         0.0000000000         0.0000000000        25.9874533654    15 
    3     1         3.8757750000        24.2184047123        20.5836082013        -4.6549252973         0.0000000000         0.0000000000         0.0000000000         0.0000000000        21.3314071770    11 
    4     1         6.4596250000        21.5274708553        23.2186631804        -6.6385596679        -0.0000000000         0.0000000000         0.0000000000         0.0000000000        24.8933591723    14 
    5     1         3.8757750000        31.8427173069        24.5180364087        -6.6237516075        -0.0000000000         0.0000000000         0.0000000000         0.0000000000        23.4901539737    14 
    6     1         6.4596250000        24.6668936884        22.4350019127        -6.4144393900         0.0000000000         0.0000000000         0.0000000000         0.0000000000        23.5802577476    14 
    7     1         3.8757750000        23.3214267600        23.7391016291        -6.5897670833         0.0000000000         0.0000000000         0.0000000000         0.0000000000        23.5554837699    14 
    8     1         6.4596250000        27.8063165215        21.6458166972        -6.6739036665         0.0000000000         0.0000000000         0.0000000000         0.0000000000        26.5620366419    15 
    9     1         3.8757750000        26.4608495930        22.9579211170        -6.6434758728         0.0000000000         0.0000000000         0.0000000000         0.0000000000        24.2845650784    16 
   10     1         3.8757750000        29.6002724261        22.1726549693        -4.8578959073         0.0000000000         0.0000000000         0.0000000000         0.0000000000        21.4611321205    14 
   11     1         6.4596250000        23.7699157361        25.5549802021        -6.6262478277         0.0000000000         0.0000000000         0.0000000000         0.0000000000        23.4452803818    14 
   12     1         3.8757750000        34.0851621876        26.8501438104        -6.6323123425         0.0000000000         0.0000000000         0.0000000000         0.0000000000        23.4150567377    14 
   13     1         6.4596250000        26.9093385692        24.7773942710        -6.6411230720         0.0000000000         0.0000000000         0.0000000000         0.0000000000        23.4849382460    14 
   14     1         3.8757750000        25.5638716407        26.0731215658        -6.6321429748        -0.0000000000         0.0000000000         0.0000000000         0.0000000000        23.4264417825    14 
   15     1         6.4596250000        30.0487614023        23.9989266622        -6.6555888398         0.0000000000         0.0000000000         0.0000000000         0.0000000000        23.5515949635    14 
   16     1         3.8757750000        28.7032944738        25.2958476699        -6.6378880006        -0.0000000000         0.0000000000         0.0000000000         0.0000000000        23.4490311551    14 
   17     1         6.4596250000        34.5336511638        28.6628451851        -6.6343771652         0.0000000000         0.0000000000         0.0000000000         0.0000000000        23.4068136108    14 
   18     1         6.4596250000        26.0123606169        27.8860039974        -6.6340978631         0.0000000000        -0.0000000000         0.0000000000         0.0000000000        23.4090833238    14 
   19     1         3.8757750000        36.3276070684        29.1807278677        -6.6343534155         0.0000000000         0.0000000000         0.0000000000         0.0000000000        23.4059158263    14 
   20     1         6.4596250000        29.1517834499        27.1091211934        -6.6336708996         0.0000000000         0.0000000000         0.0000000000         0.0000000000        23.4139808610    14 
   21     1         3.8757750000        27.8063165215        28.4039010204        -6.6340277168        -0.0000000000         0.0000000000         0.0000000000         0.0000000000        23.4070519278    14 
   22     1         6.4596250000        32.2912062830        26.3321481635        -6.6235244651         0.0000000000         0.0000000000         0.0000000000         0.0000000000        23.4243185156    14 
   23     1         3.8757750000        30.9457393546        27.6270493531        -6.6334700966        -0.0000000000         0.0000000000         0.0000000000         0.0000000000        23.4095998354    14 
   24     1         6.4596250000        36.7760960445        30.9933007882        -6.6345111155         0.0000000000         0.0000000000         0.0000000000         0.0000000000        23.4054668189    14 
   25     1         6.4596250000        28.2548054976        30.2164804129        -6.6345590547         0.0000000000         0.0000000000         0.0000000000         0.0000000000        23.4054397949    14 
   26     1         9.0434750000        38.5700519492        31.5111768715        -6.6345189850         0.0000000000         0.0000000000         0.0000000000         0.0000000000        23.4058090845    14 
   27     1         6.4596250000        31.3942283307        29.4396672084        -6.6345189850         0.0000000000         0.0000000000         0.0000000000         0.0000000000        23.4058090844    14 
   28     1         9.0434750000        30.0487614023        30.7343636669        -6.6345590547         0.0000000000        -0.0000000000         0.0000000000         0.0000000000        23.4054397948    14 
   29     1         3.8757750000        33.1881842353        29.9575432917        -6.6345111155        -0.0000000000         0.0000000000         0.0000000000         0.0000000000        23.4054668189    14 
   30     1         6.4596250000        39.0185409253        33.3237947267        -6.6334700966         0.0000000000         0.0000000000         0.0000000000         0.0000000000        23.4095998355    14 
   31     1         9.0434750000        37.6730739969        34.6186959164        -6.6235244651         0.0000000000         0.0000000000         0.0000000000         0.0000000000        23.4243185156    14 
   32     1         6.4596250000        30.4972503784        32.5469430595        -6.6340277168         0.0000000000         0.0000000000         0.0000000000         0.0000000000        23.4070519278    14 
   33     1         9.0434750000        29.1517834499        33.8417228865        -6.6336708996         0.0000000000         0.0000000000         0.0000000000         0.0000000000        23.4139808611    14 
   34     1         6.4596250000        33.6366732115        31.7701162122        -6.6343534154         0.0000000000         0.0000000000         0.0000000000         0.0000000000        23.4059158262    14 
   35     1         9.0434750000        32.2912062830        33.0648400825        -6.6340978631         0.0000000000         0.0000000000         0.0000000000         0.0000000000        23.4090833237    14 
   36     1         9.0434750000        35.4306291161        32.2879988947        -6.6343771652         0.0000000000         0.0000000000         0.0000000000         0.0000000000        23.4068136107    14 
   37     1         6.4596250000        41.2609858061        35.6549964100        -6.6378880006         0.0000000000         0.0000000000         0.0000000000         0.0000000000        23.4490311552    14 
   38     1         9.0434750000        39.9155188776        36.9519174177        -6.6555888398         0.0000000000         0.0000000000         0.0000000000         0.0000000000        23.5515949635    14 
   39     1         6.4596250000        32.7396952592        34.8777225140        -6.6321429748         0.0000000000         0.0000000000         0.0000000000         0.0000000000        23.4264417825    14 
   40     1         9.0434750000        31.3942283307        36.1734498089        -6.6411230721         0.0000000000         0.0000000000         0.0000000000         0.0000000000        23.4849382461    14 
   41     1         6.4596250000        35.8791180922        34.1007002695        -6.6323123425         0.0000000000         0.0000000000         0.0000000000         0.0000000000        23.4150567376    14 
   42     1         9.0434750000        34.5336511638        35.3958638778        -6.6262478277         0.0000000000         0.0000000000         0.0000000000         0.0000000000        23.4452803817    14 
   43     1         6.4596250000        40.3640078538        38.7781891105        -4.8578959054         0.0000000000        -0.0000000000         0.0000000000         0.0000000000        21.4611321196    14 
   44     1         6.4596250000        43.5034306868        37.9929229628        -6.6434758729         0.0000000000         0.0000000000         0.0000000000         0.0000000000        24.2845650781    16 
   45     1         9.0434750000        42.1579637584        39.3050273827        -6.6739036665         0.0000000000         0.0000000000         0.0000000000         0.0000000000        26.5620366408    15 
   46     1         6.4596250000        34.9821401399        37.2117424507        -6.5897670834         0.0000000000         0.0000000000         0.0000000000         0.0000000000        23.5554837699    14 
   47     1         9.0434750000        33.6366732115        38.5158421672        -6.4144393899         0.0000000000         0.0000000000         0.0000000000         0.0000000000        23.5802577469    14 
   48     1         6.4596250000        38.1215629730        36.4328076712        -6.6237516075         0.0000000000         0.0000000000         0.0000000000         0.0000000000        23.4901539736    14 
   49     1         9.0434750000        36.7760960445        37.7321808995        -6.6385596679        -0.0000000000         0.0000000000         0.0000000000         0.0000000000        24.8933591721    14 
   50     1         6.4596250000        45.7458755676        40.3672358785        -4.6549252954         0.0000000000         0.0000000000         0.0000000000         0.0000000000        21.3314071753    11 
   51     1         6.4596250000        37.2245850207        39.5695918433        -6.6182865558        -0.0000000000         0.0000000000         0.0000000000         0.0000000000        25.9874533643    15 
   52     1         9.0434750000        39.0185409253        40.1008276301        -6.1786303788         0.0000000000         0.0000000000         0.0000000000         0.0000000000        22.1285098539    13 
   53     1         1.2919250000         4.9333787377         0.2666601747        -4.6549252954         0.0000000000         0.0000000000         0.0000000000         0.0000000000        21.3314071753    11 
   54     1         3.8757750000         9.8667574754         0.5330684232        -6.1786303788         0.0000000000         0.0000000000         0.0000000000         0.0000000000        22.1285098539    13 
   55     1         1.2919250000         8.0728015708         1.0643042099        -6.6182865558         0.0000000000         0.0000000000         0.0000000000         0.0000000000        25.9874533643    15 
   56     1         1.2919250000        11.2122244038         1.8557069427        -4.8578959054        -0.0000000000         0.0000000000         0.0000000000         0.0000000000        21.4611321197    14 
   57     1         3.8757750000         1.3454669285         1.3288686706        -6.6739036665         0.0000000000         0.0000000000         0.0000000000         0.0000000000        26.5620366409    15 
   58     1         3.8757750000         4.4848897615         2.1180538860        -6.4144393899         0.0000000000         0.0000000000         0.0000000000         0.0000000000        23.5802577469    14 
   59     1         1.2919250000         2.6909338569         2.6409730904        -6.6434758729        -0.0000000000         0.0000000000         0.0000000000         0.0000000000        24.2845650781    16 
   60     1         3.8757750000         7.6243125946         2.9017151538        -6.6385596679         0.0000000000         0.0000000000         0.0000000000         0.0000000000        24.8933591721    14 
   61     1         1.2919250000         5.8303566900         3.4221536025        -6.5897670834         0.0000000000         0.0000000000         0.0000000000         0.0000000000        23.5554837699    14 
   62     1         3.8757750000        10.7637354277         3.6819786356        -6.6555888398        -0.0000000000         0.0000000000         0.0000000000         0.0000000000        23.5515949635    14 
   63     1         1.2919250000         8.9697795231         4.2010883821        -6.6237516075         0.0000000000         0.0000000000         0.0000000000         0.0000000000        23.4901539736    14 
   64     1         3.8757750000        13.9031582607         4.4604462444        -6.6411230721         0.0000000000         0.0000000000         0.0000000000         0.0000000000        23.4849382461    14 
   65     1         1.2919250000        12.1092023561         4.9788996433        -6.6378880006         0.0000000000         0.0000000000         0.0000000000         0.0000000000        23.4490311551    14 
   66     1         3.8757750000         5.3818677138         5.2380321755        -6.6262478277        -0.0000000000         0.0000000000         0.0000000000         0.0000000000        23.4452803818    14 
   67     1         1.2919250000        15.2486251892         5.7561735392        -6.6321429748        -0.0000000000         0.0000000000         0.0000000000         0.0000000000        23.4264417826    14 
   68     1         3.8757750000         8.5212905469         6.0152001369        -6.6235244651         0.0000000000         0.0000000000         0.0000000000         0.0000000000        23.4243185156    14 
   69     1         1.2919250000         6.7273346423         6.5331957838        -6.6323123425        -0.0000000000         0.0000000000         0.0000000000         0.0000000000        23.4150567377    14 
   70     1         3.8757750000        11.6607133800         6.7921731668        -6.6336708996        -0.0000000000         0.0000000000         0.0000000000         0.0000000000        23.4139808610    14 
   71     1         1.2919250000         9.8667574754         7.3101013265        -6.6334700966        -0.0000000000         0.0000000000         0.0000000000         0.0000000000        23.4095998354    14 
   72     1         3.8757750000        14.8001362130         7.5690559708        -6.6340978631         0.0000000000         0.0000000000         0.0000000000         0.0000000000        23.4090833237    14 
   73     1         1.2919250000        13.0061803084         8.0869529938        -6.6340277168         0.0000000000         0.0000000000         0.0000000000         0.0000000000        23.4070519277    14 
   74     1         1.2919250000        16.1456031415         8.8637798411        -6.6343534154         0.0000000000         0.0000000000         0.0000000000         0.0000000000        23.4059158263    14 
   75     1         3.8757750000        17.9395590461         8.3458971585        -6.6343771652         0.0000000000         0.0000000000         0.0000000000         0.0000000000        23.4068136108    14 
   76     1         3.8757750000         9.4182684992         9.1227191818        -6.6345189851        -0.0000000000         0.0000000000         0.0000000000         0.0000000000        23.4058090845    14 
   77     1         1.2919250000        19.2850259746         9.6405952650        -6.6345111155         0.0000000000         0.0000000000         0.0000000000         0.0000000000        23.4054668190    14 
   78     1         3.8757750000        12.5576913323         9.8995323863        -6.6345590547        -0.0000000000         0.0000000000         0.0000000000         0.0000000000        23.4054397948    14 
   79     1         6.4596250000        10.7637354277        10.4174156403        -6.6345590547         0.0000000000         0.0000000000         0.0000000000         0.0000000000        23.4054397949    14 
   80     1         3.8757750000        15.6971141654        10.6763527616        -6.6345111155         0.0000000000         0.0000000000         0.0000000000         0.0000000000        23.4054668189    14 
   81     1         6.4596250000        13.9031582607        11.1942288448        -6.6345189850         0.0000000000         0.0000000000         0.0000000000         0.0000000000        23.4058090844    14 
   82     1         6.4596250000        17.0425810938        11.9710508681        -6.6343771652         0.0000000000         0.0000000000         0.0000000000         0.0000000000        23.4068136107    14 
   83     1         3.8757750000        18.8365369984        11.4531681856        -6.6343534154         0.0000000000         0.0000000000         0.0000000000         0.0000000000        23.4059158263    14 
   84     1         3.8757750000        21.9759598315        12.2299950329        -6.6340277168         0.0000000000         0.0000000000         0.0000000000         0.0000000000        23.4070519278    14 
   85     1         6.4596250000        20.1820039269        12.7478920559        -6.6340978631         0.0000000000         0.0000000000         0.0000000000         0.0000000000        23.4090833237    14 
   86     1         3.8757750000        13.4546692846        13.0068467001        -6.6334700966        -0.0000000000         0.0000000000         0.0000000000         0.0000000000        23.4095998355    14 
   87     1         6.4596250000        11.6607133800        13.5247748599        -6.6336708996        -0.0000000000         0.0000000000         0.0000000000         0.0000000000        23.4139808611    14 
   88     1         3.8757750000        16.5940921177        13.7837522429        -6.6323123425         0.0000000000         0.0000000000         0.0000000000         0.0000000000        23.4150567376    14 
   89     1         6.4596250000        14.8001362130        14.3017478898        -6.6235244651        -0.0000000000         0.0000000000         0.0000000000         0.0000000000        23.4243185156    14 
   90     1         3.8757750000        19.7335149507        14.5607744874        -6.6321429748        -0.0000000000         0.0000000000         0.0000000000         0.0000000000        23.4264417825    14 
   91     1         6.4596250000        17.9395590461        15.0789158512        -6.6262478277         0.0000000000         0.0000000000         0.0000000000         0.0000000000        23.4452803817    14 
   92     1         3.8757750000        22.8729377838        15.3380483834        -6.6378880006         0.0000000000         0.0000000000         0.0000000000         0.0000000000        23.4490311552    14 
   93     1         6.4596250000        21.0789818792        15.8565017823        -6.6411230721         0.0000000000         0.0000000000         0.0000000000         0.0000000000        23.4849382460    14 
   94     1         3.8757750000        14.3516472369        16.1158596445        -6.6237516075         0.0000000000         0.0000000000         0.0000000000         0.0000000000        23.4901539737    14 
   95     1         6.4596250000        24.2184047123        16.6349693911        -6.6555888398         0.0000000000         0.0000000000         0.0000000000         0.0000000000        23.5515949635    14 
   96     1         3.8757750000        17.4910700700        16.8947944241        -6.5897670833        -0.0000000000         0.0000000000         0.0000000000         0.0000000000        23.5554837699    14 
   97     1         6.4596250000        15.6971141654        17.4152328729        -6.6385596679         0.0000000000         0.0000000000         0.0000000000         0.0000000000        24.8933591723    14 
   98     1         3.8757750000        20.6304929030        17.6759749362        -6.6434758728        -0.0000000000         0.0000000000         0.0000000000         0.0000000000        24.2845650784    16 
   99     1         6.4596250000        18.8365369984        18.1988941406        -6.4144393900         0.0000000000         0.0000000000         0.0000000000         0.0000000000        23.5802577476    14 
  100     1         6.4596250000        21.9759598315        18.9880793560        -6.6739036665         0.0000000000         0.0000000000         0.0000000000         0.0000000000        26.5620366418    15 
  101     1         3.8757750000        23.7699157361        18.4612410839        -4.8578959072        -0.0000000000         0.0000000000         0.0000000000         0.0000000000        21.4611321204    14 
  102     1         3.8757750000        26.9093385692        19.2526438167        -6.6182865558         0.0000000000         0.0000000000         0.0000000000         0.0000000000        25.9874533654    15 
  103     1         6.4596250000        25.1153826646        19.7838796035        -6.1786303790         0.0000000000         0.0000000000         0.0000000000         0.0000000000        22.1285098552    13 
  104     1         3.8757750000        18.3880480223        20.0502878519        -4.6549252974        -0.0000000000         0.0000000000         0.0000000000         0.0000000000        21.3314071771    11 
