ITEM: TIMESTEP
62
ITEM: NUMBER OF ATOMS
104
ITEM: BOX BOUNDS xy xz yz pp pp pp
0.0000000000000000e+000 1.0335400000000007e+001 1.0000000000000001e-015
0.0000000000000000e+000 4.6642853519934278e+001 5.1677000000000053e+000
0.0000000000000000e+000 4.0633896053000001e+001 3.4982140139934280e+001
ITEM: ATOMS id type x y z c_peatom c_datom[1] c_datom[2] c_datom[3] c_datom[4] c_voratom[1] c_voratom[2] 
    1     1         6.4596250000        19.1605237417        21.0380810386        -6.4491965009        -0.0000000000        -0.1245022329         0.1880645889         0.2255417823        22.7275689769    15 
    2     1         3.8757750000        20.8777268240        21.1500224517        -6.6294928056        -0.0000000000        -0.2012550552        -0.2312297848         0.3065465880        24.8807369257    13 
    3     1         3.8757750000        23.8637802162        21.0380496235        -6.3494652490        -0.0000000000        -0.3546244961         0.4544414222         0.5764334649        23.2430659602    13 
    4     1         6.4596250000        21.5138982947        23.1177098216        -6.6600043140         0.0000000000        -0.0135725607        -0.1009533587         0.1018616466        25.0785978069    14 
    5     1         3.8757750000        31.8736733705        24.4532447850        -6.6181197977        -0.0000000000         0.0309560636        -0.0647916237         0.0718069103        23.6067692947    14 
    6     1         6.4596250000        24.6051486128        22.5526577415        -6.5002185014         0.0000000000        -0.0617450756         0.1176558289         0.1328734301        23.0635372797    14 
    7     1         3.8757750000        23.2798841706        23.9361425945        -6.4775484549        -0.0000000000        -0.0415425894         0.1970409654         0.2013726118        22.7602088153    14 
    8     1         6.4596250000        27.6778777224        21.4224550273        -6.6854253352         0.0000000000        -0.1284387991        -0.2233616699         0.2576566722        26.1983897306    15 
    9     1         3.8757750000        26.4487151913        22.8333337000        -6.6447266379        -0.0000000000        -0.0121344017        -0.1245874170         0.1251769475        23.8438660430    14 
   10     1         3.8757750000        29.4950479048        22.4606324273        -6.4148396923         0.0000000000        -0.1052245213         0.2879774579         0.3065994393        22.4980645746    14 
   11     1         6.4596250000        23.7500315031        25.5676425113        -6.6004438054        -0.0000000000        -0.0198842330         0.0126623092         0.0235736462        23.0830491644    14 
   12     1         3.8757750000        34.0587708074        26.9000965829        -6.6199920002        -0.0000000000        -0.0263913802         0.0499527725         0.0564958797        23.1633716994    14 
   13     1         6.4596250000        26.9075454197        24.7092663905        -6.6510772282        -0.0000000000        -0.0017931494        -0.0681278805         0.0681514745        23.8029360700    14 
   14     1         3.8757750000        25.5797785754        26.0523895196        -6.6245902622         0.0000000000         0.0159069346        -0.0207320462         0.0261313664        23.4756736808    14 
   15     1         6.4596250000        30.0132929373        23.9969917283        -6.5677363287        -0.0000000000        -0.0354684649        -0.0019349339         0.0355212046        23.0621064092    14 
   16     1         3.8757750000        28.6609435983        25.3586721866        -6.5797446482        -0.0000000000        -0.0423508755         0.0628245167         0.0757661967        23.0508510445    14 
   17     1         6.4596250000        34.5265055656        28.6647146724        -6.6310547950         0.0000000000        -0.0071455981         0.0018694873         0.0073861056        23.4069030359    14 
   18     1         6.4596250000        26.0124534007        27.8558555868        -6.6388147736        -0.0000000000         0.0000927838        -0.0301484106         0.0301485533        23.5107980597    14 
   19     1         3.8757750000        36.3307475692        29.1749781992        -6.6336579578        -0.0000000000         0.0031405008        -0.0057496685         0.0065514451        23.4696803968    14 
   20     1         6.4596250000        29.1433583407        27.0977909378        -6.6312659272        -0.0000000000        -0.0084251093        -0.0113302555         0.0141193894        23.3670412481    12 
   21     1         3.8757750000        27.7987524947        28.4274915792        -6.6368597917        -0.0000000000        -0.0075640268         0.0235905589         0.0247735538        23.3503903549    16 
   22     1         6.4596250000        32.2795139150        26.2843614670        -6.6417018055         0.0000000000        -0.0116923680        -0.0477866965         0.0491963396        23.6271005521    14 
   23     1         3.8757750000        30.9444644946        27.6045116720        -6.6288867850         0.0000000000        -0.0012748599        -0.0225376812         0.0225737091        23.5082216181    14 
   24     1         6.4596250000        36.7852470130        30.9721811600        -6.6341607851         0.0000000000         0.0091509684        -0.0211196283         0.0230169268        23.4089878524    14 
   25     1         6.4596250000        28.2522004624        30.2169026698        -6.6313289437         0.0000000000        -0.0026050352         0.0004222568         0.0026390357        23.4536125549    12 
   26     1         9.0434750000        38.5709166910        31.5353563794        -6.6403951085         0.0000000000         0.0008647419         0.0241795079         0.0241949660        23.4986526148    16 
   27     1         6.4596250000        31.3933635888        29.4154877004        -6.6403951085         0.0000000000        -0.0008647419        -0.0241795080         0.0241949661        23.4986526148    16 
   28     1         9.0434750000        30.0513664374        30.7339414100        -6.6313289437         0.0000000000         0.0026050352        -0.0004222570         0.0026390357        23.4536125549    12 
   29     1         3.8757750000        33.1790332669        29.9786629198        -6.6341607851        -0.0000000000        -0.0091509684         0.0211196281         0.0230169267        23.4089878524    14 
   30     1         6.4596250000        39.0198157853        33.3463324078        -6.6288867850         0.0000000000         0.0012748600         0.0225376810         0.0225737089        23.5082216181    14 
   31     1         9.0434750000        37.6847663648        34.6664826127        -6.6417018055        -0.0000000000         0.0116923680         0.0477866963         0.0491963394        23.6271005521    14 
   32     1         6.4596250000        30.5048144052        32.5233525005        -6.6368597917        -0.0000000000         0.0075640268        -0.0235905590         0.0247735539        23.3503903549    16 
   33     1         9.0434750000        29.1602085592        33.8530531419        -6.6312659272        -0.0000000000         0.0084251093         0.0113302554         0.0141193893        23.3670412481    12 
   34     1         6.4596250000        33.6335327107        31.7758658806        -6.6336579578         0.0000000000        -0.0031405008         0.0057496684         0.0065514450        23.4696803968    14 
   35     1         9.0434750000        32.2911134992        33.0949884929        -6.6388147736         0.0000000000        -0.0000927838         0.0301484104         0.0301485532        23.5107980597    14 
   36     1         9.0434750000        35.4377747142        32.2861294073        -6.6310547950         0.0000000000         0.0071455981        -0.0018694874         0.0073861056        23.4069030359    14 
   37     1         6.4596250000        41.3033366816        35.5921718931        -6.5797446482        -0.0000000000         0.0423508755        -0.0628245169         0.0757661968        23.0508510445    14 
   38     1         9.0434750000        39.9509873426        36.9538523515        -6.5677363287        -0.0000000000         0.0354684650         0.0019349338         0.0355212046        23.0621064092    14 
   39     1         6.4596250000        32.7237883245        34.8984545601        -6.6245902622        -0.0000000000        -0.0159069347         0.0207320461         0.0261313663        23.4756736808    14 
   40     1         9.0434750000        31.3960214801        36.2415776892        -6.6510772282         0.0000000000         0.0017931494         0.0681278803         0.0681514744        23.8029360700    14 
   41     1         6.4596250000        35.9055094724        34.0507474969        -6.6199920002         0.0000000000         0.0263913802        -0.0499527726         0.0564958799        23.1633716994    14 
   42     1         9.0434750000        34.5535353968        35.3832015685        -6.6004438054         0.0000000000         0.0198842330        -0.0126623093         0.0235736463        23.0830491644    14 
   43     1         6.4596250000        40.4692323750        38.4902116525        -6.4148396923        -0.0000000000         0.1052245213        -0.2879774581         0.3065994394        22.4980645746    14 
   44     1         6.4596250000        43.5155650886        38.1175103797        -6.6447266379        -0.0000000000         0.0121344017         0.1245874169         0.1251769474        23.8438660430    14 
   45     1         9.0434750000        42.2864025575        39.5283890525        -6.6854253352        -0.0000000000         0.1284387991         0.2233616698         0.2576566721        26.1983897306    15 
   46     1         6.4596250000        35.0236827293        37.0147014852        -6.4775484549         0.0000000000         0.0415425894        -0.1970409655         0.2013726119        22.7602088153    14 
   47     1         9.0434750000        33.6984182870        38.3981863382        -6.5002185014         0.0000000000         0.0617450756        -0.1176558290         0.1328734302        23.0635372797    14 
   48     1         6.4596250000        38.0906069094        36.4975992947        -6.6181197977         0.0000000000        -0.0309560636         0.0647916236         0.0718069102        23.6067692947    14 
   49     1         9.0434750000        36.7896686052        37.8331342581        -6.6600043140         0.0000000000         0.0135725607         0.1009533586         0.1018616465        25.0785978069    14 
   50     1         6.4596250000        46.1005000637        39.9127944562        -6.3494652490        -0.0000000000         0.3546244961        -0.4544414223         0.5764334650        23.2430659602    13 
   51     1         6.4596250000        37.4258400759        39.8008216280        -6.6294928056        -0.0000000000         0.2012550552         0.2312297847         0.3065465879        24.8807369257    13 
   52     1         9.0434750000        39.1430431582        39.9127630411        -6.4491965009         0.0000000000         0.1245022329        -0.1880645890         0.2255417824        22.7275689769    15 
   53     1         1.2919250000         5.2880032338         0.7211015970        -6.3494652490         0.0000000000         0.3546244961         0.4544414223         0.5764334650        23.2430659603    13 
   54     1         3.8757750000         9.9912597083         0.7211330121        -6.4491965009        -0.0000000000         0.1245022329         0.1880645890         0.2255417824        22.7275689769    15 
   55     1         1.2919250000         8.2740566259         0.8330744252        -6.6294928056         0.0000000000         0.2012550552        -0.2312297847         0.3065465879        24.8807369257    13 
   56     1         1.2919250000        11.3174489251         2.1436844008        -6.4148396923         0.0000000000         0.1052245213         0.2879774581         0.3065994394        22.4980645746    14 
   57     1         3.8757750000         1.4739057275         1.1055070008        -6.6854253352         0.0000000000         0.1284387991        -0.2233616698         0.2576566721        26.1983897307    15 
   58     1         3.8757750000         4.5466348371         2.2357097150        -6.5002185014         0.0000000000         0.0617450756         0.1176558290         0.1328734302        23.0635372796    14 
   59     1         1.2919250000         2.7030682586         2.5163856735        -6.6447266379         0.0000000000         0.0121344017        -0.1245874169         0.1251769474        23.8438660430    14 
   60     1         3.8757750000         7.6378851553         2.8007617951        -6.6600043140         0.0000000000         0.0135725607        -0.1009533586         0.1018616465        25.0785978069    14 
   61     1         1.2919250000         5.8718992794         3.6191945680        -6.4775484549        -0.0000000000         0.0415425894         0.1970409655         0.2013726119        22.7602088153    14 
   62     1         3.8757750000        10.7992038926         3.6800437018        -6.5677363287         0.0000000000         0.0354684649        -0.0019349338         0.0355212046        23.0621064092    14 
   63     1         1.2919250000         8.9388234594         4.1362967585        -6.6181197977         0.0000000000        -0.0309560636        -0.0647916236         0.0718069102        23.6067692947    14 
   64     1         3.8757750000        13.9049514102         4.3923183640        -6.6510772282         0.0000000000         0.0017931494        -0.0681278803         0.0681514744        23.8029360701    14 
   65     1         1.2919250000        12.1515532316         5.0417241601        -6.5797446482        -0.0000000000         0.0423508755         0.0628245169         0.0757661968        23.0508510445    14 
   66     1         3.8757750000         5.4017519468         5.2506944848        -6.6004438054         0.0000000000         0.0198842330         0.0126623093         0.0235736463        23.0830491643    14 
   67     1         1.2919250000        15.2327182546         5.7354414931        -6.6245902622        -0.0000000000        -0.0159069347        -0.0207320461         0.0261313663        23.4756736808    14 
   68     1         3.8757750000         8.5329829149         5.9674134405        -6.6417018055        -0.0000000000         0.0116923680        -0.0477866963         0.0491963394        23.6271005521    14 
   69     1         1.2919250000         6.7537260225         6.5831485564        -6.6199920002        -0.0000000000         0.0263913802         0.0499527726         0.0564958799        23.1633716994    14 
   70     1         3.8757750000        11.6691384893         6.7808429113        -6.6312659272         0.0000000000         0.0084251093        -0.0113302554         0.0141193893        23.3670412481    12 
   71     1         1.2919250000         9.8680323353         7.2875636455        -6.6288867850        -0.0000000000         0.0012748599        -0.0225376810         0.0225737089        23.5082216181    14 
   72     1         3.8757750000        14.8000434292         7.5389075603        -6.6388147736         0.0000000000        -0.0000927838        -0.0301484104         0.0301485532        23.5107980597    14 
   73     1         1.2919250000        13.0137443352         8.1105435527        -6.6368597917        -0.0000000000         0.0075640268         0.0235905590         0.0247735539        23.3503903549    16 
   74     1         1.2919250000        16.1424626407         8.8580301727        -6.6336579578         0.0000000000        -0.0031405008        -0.0057496684         0.0065514450        23.4696803968    14 
   75     1         3.8757750000        17.9467046443         8.3477666459        -6.6310547950        -0.0000000000         0.0071455981         0.0018694874         0.0073861056        23.4069030359    14 
   76     1         3.8757750000         9.4191332411         9.0985396739        -6.6403951085         0.0000000000         0.0008647419        -0.0241795079         0.0241949660        23.4986526148    16 
   77     1         1.2919250000        19.2941769430         9.6617148933        -6.6341607851        -0.0000000000         0.0091509684         0.0211196283         0.0230169268        23.4089878524    14 
   78     1         3.8757750000        12.5602963675         9.8999546433        -6.6313289437         0.0000000000         0.0026050352         0.0004222570         0.0026390357        23.4536125549    12 
   79     1         6.4596250000        10.7611303925        10.4169933835        -6.6313289437         0.0000000000        -0.0026050352        -0.0004222568         0.0026390357        23.4536125549    12 
   80     1         3.8757750000        15.6879631970        10.6552331335        -6.6341607851        -0.0000000000        -0.0091509684        -0.0211196281         0.0230169267        23.4089878524    14 
   81     1         6.4596250000        13.9022935189        11.2184083529        -6.6403951085         0.0000000000        -0.0008647419         0.0241795080         0.0241949662        23.4986526148    16 
   82     1         6.4596250000        17.0354354957        11.9691813808        -6.6310547950        -0.0000000000        -0.0071455981        -0.0018694873         0.0073861056        23.4069030359    14 
   83     1         3.8757750000        18.8396774992        11.4589178541        -6.6336579578         0.0000000000         0.0031405008         0.0057496685         0.0065514451        23.4696803968    14 
   84     1         3.8757750000        21.9683958047        12.2064044740        -6.6368597917         0.0000000000        -0.0075640268        -0.0235905589         0.0247735538        23.3503903549    16 
   85     1         6.4596250000        20.1820967107        12.7780404664        -6.6388147736        -0.0000000000         0.0000927839         0.0301484106         0.0301485533        23.5107980597    14 
   86     1         3.8757750000        13.4533944246        13.0293843813        -6.6288867850         0.0000000000        -0.0012748599         0.0225376812         0.0225737091        23.5082216181    14 
   87     1         6.4596250000        11.6522882707        13.5361051154        -6.6312659272         0.0000000000        -0.0084251093         0.0113302555         0.0141193894        23.3670412481    12 
   88     1         3.8757750000        16.5677007375        13.7337994704        -6.6199920002         0.0000000000        -0.0263913802        -0.0499527725         0.0564958798        23.1633716994    14 
   89     1         6.4596250000        14.7884438451        14.3495345862        -6.6417018055         0.0000000000        -0.0116923680         0.0477866965         0.0491963396        23.6271005521    14 
   90     1         3.8757750000        19.7494218854        14.5815065336        -6.6245902622         0.0000000000         0.0159069347         0.0207320462         0.0261313664        23.4756736808    14 
   91     1         6.4596250000        17.9196748131        15.0662535420        -6.6004438054         0.0000000000        -0.0198842330        -0.0126623092         0.0235736462        23.0830491643    14 
   92     1         3.8757750000        22.8305869083        15.2752238666        -6.5797446482        -0.0000000000        -0.0423508755        -0.0628245167         0.0757661967        23.0508510445    14 
   93     1         6.4596250000        21.0771887298        15.9246296627        -6.6510772282        -0.0000000000        -0.0017931494         0.0681278805         0.0681514745        23.8029360701    14 
   94     1         3.8757750000        14.3826033005        16.1806512682        -6.6181197977         0.0000000000         0.0309560636         0.0647916237         0.0718069103        23.6067692947    14 
   95     1         6.4596250000        24.1829362473        16.6369043250        -6.5677363287        -0.0000000000        -0.0354684649         0.0019349339         0.0355212046        23.0621064092    14 
   96     1         3.8757750000        17.4495274806        16.6977534587        -6.4775484549         0.0000000000        -0.0415425894        -0.1970409654         0.2013726118        22.7602088153    14 
   97     1         6.4596250000        15.6835416047        17.5161862316        -6.6600043140         0.0000000000        -0.0135725607         0.1009533587         0.1018616466        25.0785978069    14 
   98     1         3.8757750000        20.6183585013        17.8005623533        -6.6447266379         0.0000000000        -0.0121344017         0.1245874170         0.1251769475        23.8438660430    14 
   99     1         6.4596250000        18.7747919229        18.0812383117        -6.5002185014         0.0000000000        -0.0617450756        -0.1176558289         0.1328734301        23.0635372796    14 
  100     1         6.4596250000        21.8475210324        19.2114410260        -6.6854253352        -0.0000000000        -0.1284387991         0.2233616699         0.2576566722        26.1983897307    15 
  101     1         3.8757750000        23.6646912149        18.1732636260        -6.4148396923        -0.0000000000        -0.1052245213        -0.2879774579         0.3065994393        22.4980645746    14 
  102     1         3.8757750000        26.7080835140        19.4838736016        -6.6294928056        -0.0000000000        -0.2012550552         0.2312297849         0.3065465880        24.8807369257    13 
  103     1         6.4596250000        24.9908804317        19.5958150146        -6.4491965009        -0.0000000000        -0.1245022329        -0.1880645889         0.2255417823        22.7275689769    15 
  104     1         3.8757750000        18.0334235262        19.5958464297        -6.3494652490        -0.0000000000        -0.3546244961        -0.4544414222         0.5764334649        23.2430659603    13 
