LAMMPS (11 Aug 2017)
OMP_NUM_THREADS environment is not set. Defaulting to 1 thread. (../comm.cpp:90)
  using 1 OpenMP thread(s) per MPI task
units        metal
dimension    3
boundary     p p p
box          tilt large
atom_style   atomic

read_data    atoms.lammps
  triclinic box = (0 0 0) to (5.1677 11.6607 40.6339) with tilt (1e-015 5.1677 34.9821)
WARNING: Triclinic box skew is large (../domain.cpp:197)
  1 by 1 by 1 MPI processor grid
  reading atoms ...
  104 atoms

pair_style eam/fs
pair_coeff * * "C:\Users\adamj\dropbox\code_db\supporting_manuscript_code\first-principles-zr-grain-boundaries\data\potential\Zr_3.eam.fs" Zr


compute peatom all pe/atom
compute datom all displace/atom
compute voratom all voronoi/atom

thermo_style custom step atoms pe ke etotal fmax
thermo_modify format float %20.10f
thermo 1

dump 1 all custom 100 dump.*.txt id type x y z c_peatom c_datom[1] c_datom[2] c_datom[3] c_datom[4] c_voratom[1] c_voratom[2]
dump_modify 1 format line "%5d %5d %20.10f %20.10f %20.10f %20.10f %20.10f %20.10f %20.10f %20.10f %20.10f %5.f"

min_style cg
minimize 0.0 1.0e-6 10000 100000
WARNING: Using 'neigh_modify every 1 delay 0 check yes' setting during minimization (../min.cpp:168)
Neighbor list info ...
  update every 1 steps, delay 0 steps, check yes
  max neighbors/atom: 2000, page size: 100000
  master list distance cutoff = 9.6
  ghost atom cutoff = 9.6
  binsize = 4.8, bins = 3 10 9
  1 neighbor lists, perpetual/occasional/extra = 1 0 0
  (1) pair eam/fs, perpetual
      attributes: half, newton on
      pair build: half/bin/newton/tri
      stencil: half/bin/3d/newton/tri
      bin: standard
Per MPI rank memory allocation (min/avg/max) = 6.789 | 6.789 | 6.789 Mbytes
Step Atoms PotEng KinEng TotEng Fmax 
       0      104      -672.2001970399         0.0000000000      -672.2001970399        15.5665464884 
       1      104      -681.2393011828         0.0000000000      -681.2393011828         5.1575208933 
       2      104      -683.4242094111         0.0000000000      -683.4242094111         1.3742463358 
       3      104      -684.8109304267         0.0000000000      -684.8109304267         0.6345933964 
       4      104      -685.3428061513         0.0000000000      -685.3428061513         0.2999284323 
       5      104      -685.5265411602         0.0000000000      -685.5265411602         0.2361777343 
       6      104      -685.5937440395         0.0000000000      -685.5937440395         0.1106438569 
       7      104      -685.6242293988         0.0000000000      -685.6242293988         0.0806385560 
       8      104      -685.6399054342         0.0000000000      -685.6399054342         0.0845100253 
       9      104      -685.6514622142         0.0000000000      -685.6514622142         0.0512625901 
      10      104      -685.6594016072         0.0000000000      -685.6594016072         0.0406622904 
      11      104      -685.6661951239         0.0000000000      -685.6661951239         0.0317148218 
      12      104      -685.6698167557         0.0000000000      -685.6698167557         0.0234119146 
      13      104      -685.6719385988         0.0000000000      -685.6719385988         0.0191800854 
      14      104      -685.6734554351         0.0000000000      -685.6734554351         0.0160223694 
      15      104      -685.6749713372         0.0000000000      -685.6749713372         0.0163535520 
      16      104      -685.6770318240         0.0000000000      -685.6770318240         0.0203382110 
      17      104      -685.6788209354         0.0000000000      -685.6788209354         0.0288022329 
      18      104      -685.6801981872         0.0000000000      -685.6801981872         0.0180516940 
      19      104      -685.6811493648         0.0000000000      -685.6811493648         0.0099031076 
      20      104      -685.6821029426         0.0000000000      -685.6821029426         0.0101435807 
      21      104      -685.6825916746         0.0000000000      -685.6825916746         0.0110822398 
      22      104      -685.6827948509         0.0000000000      -685.6827948509         0.0091671814 
      23      104      -685.6828970357         0.0000000000      -685.6828970357         0.0039722515 
      24      104      -685.6829560208         0.0000000000      -685.6829560208         0.0022434013 
      25      104      -685.6829786620         0.0000000000      -685.6829786620         0.0015308211 
      26      104      -685.6829862017         0.0000000000      -685.6829862017         0.0012983960 
      27      104      -685.6829893509         0.0000000000      -685.6829893509         0.0006436926 
      28      104      -685.6829905082         0.0000000000      -685.6829905082         0.0003409859 
      29      104      -685.6829912548         0.0000000000      -685.6829912548         0.0004984480 
      30      104      -685.6829918927         0.0000000000      -685.6829918927         0.0004087933 
      31      104      -685.6829924266         0.0000000000      -685.6829924266         0.0003015954 
      32      104      -685.6829926883         0.0000000000      -685.6829926883         0.0001382924 
      33      104      -685.6829927638         0.0000000000      -685.6829927638         0.0000767431 
      34      104      -685.6829927890         0.0000000000      -685.6829927890         0.0000721213 
      35      104      -685.6829928014         0.0000000000      -685.6829928014         0.0000766299 
      36      104      -685.6829928208         0.0000000000      -685.6829928208         0.0000694009 
      37      104      -685.6829928427         0.0000000000      -685.6829928427         0.0000663074 
      38      104      -685.6829928730         0.0000000000      -685.6829928730         0.0000625704 
      39      104      -685.6829929025         0.0000000000      -685.6829929025         0.0001192740 
      40      104      -685.6829929235         0.0000000000      -685.6829929235         0.0000761642 
      41      104      -685.6829929315         0.0000000000      -685.6829929315         0.0000362243 
      42      104      -685.6829929351         0.0000000000      -685.6829929351         0.0000221766 
      43      104      -685.6829929367         0.0000000000      -685.6829929367         0.0000154211 
      44      104      -685.6829929375         0.0000000000      -685.6829929375         0.0000190007 
      45      104      -685.6829929382         0.0000000000      -685.6829929382         0.0000122777 
      46      104      -685.6829929388         0.0000000000      -685.6829929388         0.0000073575 
      47      104      -685.6829929391         0.0000000000      -685.6829929391         0.0000072449 
      48      104      -685.6829929392         0.0000000000      -685.6829929392         0.0000045739 
      49      104      -685.6829929392         0.0000000000      -685.6829929392         0.0000022392 
      50      104      -685.6829929393         0.0000000000      -685.6829929393         0.0000013654 
      51      104      -685.6829929393         0.0000000000      -685.6829929393         0.0000012293 
      52      104      -685.6829929393         0.0000000000      -685.6829929393         0.0000010036 
      53      104      -685.6829929393         0.0000000000      -685.6829929393         0.0000006452 
      54      104      -685.6829929393         0.0000000000      -685.6829929393         0.0000003699 
      55      104      -685.6829929393         0.0000000000      -685.6829929393         0.0000002871 
      56      104      -685.6829929393         0.0000000000      -685.6829929393         0.0000002402 
      57      104      -685.6829929393         0.0000000000      -685.6829929393         0.0000003753 
      58      104      -685.6829929393         0.0000000000      -685.6829929393         0.0000002726 
      59      104      -685.6829929393         0.0000000000      -685.6829929393         0.0000002435 
      60      104      -685.6829929393         0.0000000000      -685.6829929393         0.0000003214 
      61      104      -685.6829929393         0.0000000000      -685.6829929393         0.0000002712 
      62      104      -685.6829929393         0.0000000000      -685.6829929393         0.0000001860 
Loop time of 0.0940011 on 1 procs for 62 steps with 104 atoms

99.7% CPU use with 1 MPI tasks x 1 OpenMP threads

Minimization stats:
  Stopping criterion = force tolerance
  Energy initial, next-to-last, final = 
         -672.20019704     -685.682992939     -685.682992939
  Force two-norm initial, final = 44.396 9.39151e-007
  Force max component initial, final = 15.5665 1.86044e-007
  Final line search alpha, max atom move = 1 1.86044e-007
  Iterations, force evaluations = 62 120

MPI task timing breakdown:
Section |  min time  |  avg time  |  max time  |%varavg| %total
---------------------------------------------------------------
Pair    | 0.038001   | 0.038001   | 0.038001   |   0.0 | 40.43
Neigh   | 0          | 0          | 0          |   0.0 |  0.00
Comm    | 0.0019991  | 0.0019991  | 0.0019991  |   0.0 |  2.13
Output  | 0.0010011  | 0.0010011  | 0.0010011  |   0.0 |  1.07
Modify  | 0          | 0          | 0          |   0.0 |  0.00
Other   |            | 0.053      |            |       | 56.38

Nlocal:    104 ave 104 max 104 min
Histogram: 1 0 0 0 0 0 0 0 0 0
Nghost:    2197 ave 2197 max 2197 min
Histogram: 1 0 0 0 0 0 0 0 0 0
Neighs:    7728 ave 7728 max 7728 min
Histogram: 1 0 0 0 0 0 0 0 0 0

Total # of neighbors = 7728
Ave neighs/atom = 74.3077
Neighbor list builds = 0
Dangerous builds = 0
Total wall time: 0:00:00
