Header

84 atoms
1 atom types

0.0    8.556624315 xlo xhi
0.0    7.410254028 ylo yhi
0.0   31.006200000 zlo zhi

4.278312157556996        0.000000000000003        0.000000000000002        xy xz yz

Atoms

       1    1       1.833562353238714        0.352869239406113       19.378875000000001
       2    1       1.833562353238714        0.352869239406114       24.546574999999997
       3    1       1.833562353238715        0.352869239406114       29.714275000000001
       4    1       3.667124706477426        0.705738478812224       16.795024999999999
       5    1       3.667124706477427        0.705738478812225       21.962724999999999
       6    1       3.667124706477427        0.705738478812225       27.130424999999999
       7    1       4.278312157556997        2.470084675842782       19.378875000000001
       8    1       3.055937255397856        3.881561633467227       16.795024999999999
       9    1       4.278312157556997        2.470084675842782       24.546574999999997
      10    1       3.055937255397857        3.881561633467227       21.962724999999999
      11    1       4.278312157556998        2.470084675842783       29.714275000000001
      12    1       3.055937255397857        3.881561633467227       27.130424999999999
      13    1       7.334249412954851        1.411476957624448       19.378875000000001
      14    1       6.111874510795711        2.822953915248892       16.795024999999999
      15    1       7.334249412954852        1.411476957624448       24.546574999999997
      16    1       6.111874510795711        2.822953915248893       21.962724999999999
      17    1       7.334249412954852        1.411476957624448       29.714275000000001
      18    1       6.111874510795712        2.822953915248893       27.130424999999999
      19    1       9.167811766193566        1.764346197030557       16.795024999999999
      20    1       9.167811766193566        1.764346197030557       21.962724999999999
      21    1       9.167811766193566        1.764346197030557       27.130424999999999
      22    1       3.667124706477427        5.645907830497785       19.378875000000001
      23    1       3.667124706477427        5.645907830497785       24.546574999999997
      24    1       3.667124706477428        5.645907830497785       29.714275000000001
      25    1       6.723061961875281        4.587300112279451       19.378875000000001
      26    1       5.500687059716141        5.998777069903895       16.795024999999999
      27    1       6.723061961875282        4.587300112279451       24.546574999999997
      28    1       5.500687059716141        5.998777069903895       21.962724999999999
      29    1       6.723061961875282        4.587300112279451       29.714275000000001
      30    1       5.500687059716141        5.998777069903895       27.130424999999999
      31    1       9.778999217273135        3.528692394061116       19.378875000000001
      32    1       8.556624315113993        4.940169351685562       16.795024999999999
      33    1       9.778999217273135        3.528692394061117       24.546574999999997
      34    1       8.556624315113995        4.940169351685562       21.962724999999999
      35    1       9.778999217273135        3.528692394061118       29.714275000000001
      36    1       8.556624315113995        4.940169351685562       27.130424999999999
      37    1       9.167811766193566        6.704515548716119       19.378875000000001
      38    1       9.167811766193568        6.704515548716120       24.546574999999997
      39    1       9.167811766193568        6.704515548716120       29.714275000000001
      40    1      11.001374119432279        7.057384788122230       16.795024999999999
      41    1      11.001374119432279        7.057384788122230       21.962724999999999
      42    1      11.001374119432279        7.057384788122231       27.130424999999999
      43    1       1.833562353238713        0.352869239406112        3.875775000000001
      44    1       1.833562353238713        0.352869239406112        9.043475000000001
      45    1       1.833562353238714        0.352869239406113       14.211175000000001
      46    1       3.667124706477424        0.705738478812223        1.291925000000001
      47    1       3.667124706477425        0.705738478812223        6.459625000000001
      48    1       3.667124706477425        0.705738478812224       11.627324999999999
      49    1       4.278312157556996        2.470084675842780        3.875775000000001
      50    1       3.055937255397855        3.881561633467225        1.291925000000001
      51    1       4.278312157556996        2.470084675842781        9.043475000000001
      52    1       3.055937255397855        3.881561633467226        6.459625000000001
      53    1       4.278312157556996        2.470084675842781       14.211175000000001
      54    1       3.055937255397856        3.881561633467227       11.627324999999999
      55    1       7.334249412954850        1.411476957624446        3.875775000000001
      56    1       6.111874510795710        2.822953915248891        1.291925000000001
      57    1       7.334249412954851        1.411476957624446        9.043475000000001
      58    1       6.111874510795710        2.822953915248892        6.459625000000001
      59    1       7.334249412954851        1.411476957624447       14.211175000000001
      60    1       6.111874510795711        2.822953915248892       11.627324999999999
      61    1       9.167811766193566        1.764346197030555        1.291925000000001
      62    1       9.167811766193566        1.764346197030556        6.459625000000001
      63    1       9.167811766193566        1.764346197030557       11.627324999999999
      64    1       3.667124706477426        5.645907830497784        3.875775000000001
      65    1       3.667124706477426        5.645907830497784        9.043475000000001
      66    1       3.667124706477427        5.645907830497785       14.211175000000001
      67    1       6.723061961875279        4.587300112279450        3.875775000000001
      68    1       5.500687059716139        5.998777069903893        1.291925000000001
      69    1       6.723061961875281        4.587300112279450        9.043475000000001
      70    1       5.500687059716141        5.998777069903893        6.459625000000001
      71    1       6.723061961875281        4.587300112279451       14.211175000000001
      72    1       5.500687059716141        5.998777069903895       11.627324999999999
      73    1       9.778999217273135        3.528692394061115        3.875775000000001
      74    1       8.556624315113993        4.940169351685560        1.291925000000001
      75    1       9.778999217273135        3.528692394061115        9.043475000000001
      76    1       8.556624315113993        4.940169351685561        6.459625000000001
      77    1       9.778999217273135        3.528692394061116       14.211175000000001
      78    1       8.556624315113993        4.940169351685562       11.627324999999999
      79    1       9.167811766193564        6.704515548716118        3.875775000000001
      80    1       9.167811766193566        6.704515548716119        9.043475000000001
      81    1       9.167811766193566        6.704515548716119       14.211175000000001
      82    1      11.001374119432278        7.057384788122228        1.291925000000001
      83    1      11.001374119432278        7.057384788122228        6.459625000000001
      84    1      11.001374119432279        7.057384788122230       11.627324999999999
