ITEM: TIMESTEP
0
ITEM: NUMBER OF ATOMS
84
ITEM: BOX BOUNDS xy xz yz pp pp pp
0.0000000000000000e+000 1.2834936472557001e+001 4.2783121575569956e+000
0.0000000000000000e+000 7.4102540280000015e+000 2.9999999999999998e-015
0.0000000000000000e+000 3.1006200000000000e+001 2.0000000000000002e-015
ITEM: ATOMS id type x y z c_peatom c_datom[1] c_datom[2] c_datom[3] c_datom[4] c_voratom[1] c_voratom[2] 
    1     1         1.8335623532         0.3528692394        19.3788750000        -6.6347091852         0.0000000000         0.0000000000         0.0000000000         0.0000000000        23.4047937581    14 
    2     1         1.8335623532         0.3528692394        24.5465750000        -6.6347091852         0.0000000000         0.0000000000         0.0000000000         0.0000000000        23.4047937581    14 
    3     1         1.8335623532         0.3528692394        29.7142750000        -6.6347091852         0.0000000000         0.0000000000         0.0000000000         0.0000000000        23.4047937581    14 
    4     1         3.6671247065         0.7057384788        16.7950250000        -6.6347091852         0.0000000000         0.0000000000         0.0000000000         0.0000000000        23.4047937582    14 
    5     1         3.6671247065         0.7057384788        21.9627250000        -6.6347091852         0.0000000000         0.0000000000         0.0000000000         0.0000000000        23.4047937582    14 
    6     1         3.6671247065         0.7057384788        27.1304250000        -6.6347091852         0.0000000000         0.0000000000         0.0000000000         0.0000000000        23.4047937582    14 
    7     1         4.2783121576         2.4700846758        19.3788750000        -6.6347091851         0.0000000000         0.0000000000         0.0000000000         0.0000000000        23.4047937566    14 
    8     1         3.0559372554         3.8815616335        16.7950250000        -6.6347091851         0.0000000000         0.0000000000         0.0000000000         0.0000000000        23.4047937553    12 
    9     1         4.2783121576         2.4700846758        24.5465750000        -6.6347091851         0.0000000000         0.0000000000         0.0000000000         0.0000000000        23.4047937566    14 
   10     1         3.0559372554         3.8815616335        21.9627250000        -6.6347091851         0.0000000000         0.0000000000         0.0000000000         0.0000000000        23.4047937553    12 
   11     1         4.2783121576         2.4700846758        29.7142750000        -6.6347091851         0.0000000000         0.0000000000         0.0000000000         0.0000000000        23.4047937566    14 
   12     1         3.0559372554         3.8815616335        27.1304250000        -6.6347091851         0.0000000000         0.0000000000         0.0000000000         0.0000000000        23.4047937553    12 
   13     1         7.3342494130         1.4114769576        19.3788750000        -6.6347091852         0.0000000000         0.0000000000         0.0000000000         0.0000000000        23.4047937581    14 
   14     1         6.1118745108         2.8229539152        16.7950250000        -6.6347091851         0.0000000000         0.0000000000         0.0000000000         0.0000000000        23.4047937567    12 
   15     1         7.3342494130         1.4114769576        24.5465750000        -6.6347091852         0.0000000000         0.0000000000         0.0000000000         0.0000000000        23.4047937581    14 
   16     1         6.1118745108         2.8229539152        21.9627250000        -6.6347091851         0.0000000000         0.0000000000         0.0000000000         0.0000000000        23.4047937567    12 
   17     1         7.3342494130         1.4114769576        29.7142750000        -6.6347091852         0.0000000000         0.0000000000         0.0000000000         0.0000000000        23.4047937581    14 
   18     1         6.1118745108         2.8229539152        27.1304250000        -6.6347091851         0.0000000000         0.0000000000         0.0000000000         0.0000000000        23.4047937567    12 
   19     1         9.1678117662         1.7643461970        16.7950250000        -6.6347091851         0.0000000000         0.0000000000         0.0000000000         0.0000000000        23.4047937567    14 
   20     1         9.1678117662         1.7643461970        21.9627250000        -6.6347091851        -0.0000000000         0.0000000000         0.0000000000         0.0000000000        23.4047937567    14 
   21     1         9.1678117662         1.7643461970        27.1304250000        -6.6347091851        -0.0000000000         0.0000000000         0.0000000000         0.0000000000        23.4047937567    14 
   22     1         3.6671247065         5.6459078305        19.3788750000        -6.6347091851         0.0000000000        -0.0000000000         0.0000000000         0.0000000000        23.4047937567    14 
   23     1         3.6671247065         5.6459078305        24.5465750000        -6.6347091851         0.0000000000         0.0000000000         0.0000000000         0.0000000000        23.4047937567    14 
   24     1         3.6671247065         5.6459078305        29.7142750000        -6.6347091851         0.0000000000         0.0000000000         0.0000000000         0.0000000000        23.4047937567    14 
   25     1         6.7230619619         4.5873001123        19.3788750000        -6.6347091851         0.0000000000        -0.0000000000         0.0000000000         0.0000000000        23.4047937567    12 
   26     1         5.5006870597         5.9987770699        16.7950250000        -6.6347091852         0.0000000000         0.0000000000         0.0000000000         0.0000000000        23.4047937581    14 
   27     1         6.7230619619         4.5873001123        24.5465750000        -6.6347091851         0.0000000000         0.0000000000         0.0000000000         0.0000000000        23.4047937567    12 
   28     1         5.5006870597         5.9987770699        21.9627250000        -6.6347091852         0.0000000000         0.0000000000         0.0000000000         0.0000000000        23.4047937581    14 
   29     1         6.7230619619         4.5873001123        29.7142750000        -6.6347091851         0.0000000000         0.0000000000         0.0000000000         0.0000000000        23.4047937567    12 
   30     1         5.5006870597         5.9987770699        27.1304250000        -6.6347091852         0.0000000000         0.0000000000         0.0000000000         0.0000000000        23.4047937581    14 
   31     1         9.7789992173         3.5286923941        19.3788750000        -6.6347091851         0.0000000000         0.0000000000         0.0000000000         0.0000000000        23.4047937553    12 
   32     1         8.5566243151         4.9401693517        16.7950250000        -6.6347091851         0.0000000000         0.0000000000         0.0000000000         0.0000000000        23.4047937566    14 
   33     1         9.7789992173         3.5286923941        24.5465750000        -6.6347091851         0.0000000000         0.0000000000         0.0000000000         0.0000000000        23.4047937553    12 
   34     1         8.5566243151         4.9401693517        21.9627250000        -6.6347091851         0.0000000000         0.0000000000         0.0000000000         0.0000000000        23.4047937566    14 
   35     1         9.7789992173         3.5286923941        29.7142750000        -6.6347091851         0.0000000000         0.0000000000         0.0000000000         0.0000000000        23.4047937553    12 
   36     1         8.5566243151         4.9401693517        27.1304250000        -6.6347091851         0.0000000000         0.0000000000         0.0000000000         0.0000000000        23.4047937566    14 
   37     1         9.1678117662         6.7045155487        19.3788750000        -6.6347091852         0.0000000000         0.0000000000         0.0000000000         0.0000000000        23.4047937582    14 
   38     1         9.1678117662         6.7045155487        24.5465750000        -6.6347091852        -0.0000000000         0.0000000000         0.0000000000         0.0000000000        23.4047937582    14 
   39     1         9.1678117662         6.7045155487        29.7142750000        -6.6347091852         0.0000000000         0.0000000000         0.0000000000         0.0000000000        23.4047937582    14 
   40     1        11.0013741194         7.0573847881        16.7950250000        -6.6347091852         0.0000000000         0.0000000000         0.0000000000         0.0000000000        23.4047937581    14 
   41     1        11.0013741194         7.0573847881        21.9627250000        -6.6347091852         0.0000000000         0.0000000000         0.0000000000         0.0000000000        23.4047937581    14 
   42     1        11.0013741194         7.0573847881        27.1304250000        -6.6347091852         0.0000000000         0.0000000000         0.0000000000         0.0000000000        23.4047937581    14 
   43     1         1.8335623532         0.3528692394         3.8757750000        -6.6347091852         0.0000000000         0.0000000000         0.0000000000         0.0000000000        23.4047937581    14 
   44     1         1.8335623532         0.3528692394         9.0434750000        -6.6347091852         0.0000000000         0.0000000000         0.0000000000         0.0000000000        23.4047937581    14 
   45     1         1.8335623532         0.3528692394        14.2111750000        -6.6347091852         0.0000000000         0.0000000000         0.0000000000         0.0000000000        23.4047937581    14 
   46     1         3.6671247065         0.7057384788         1.2919250000        -6.6347091852         0.0000000000         0.0000000000         0.0000000000         0.0000000000        23.4047937582    14 
   47     1         3.6671247065         0.7057384788         6.4596250000        -6.6347091852         0.0000000000         0.0000000000         0.0000000000         0.0000000000        23.4047937582    14 
   48     1         3.6671247065         0.7057384788        11.6273250000        -6.6347091852         0.0000000000         0.0000000000         0.0000000000         0.0000000000        23.4047937582    14 
   49     1         4.2783121576         2.4700846758         3.8757750000        -6.6347091851         0.0000000000         0.0000000000         0.0000000000         0.0000000000        23.4047937566    14 
   50     1         3.0559372554         3.8815616335         1.2919250000        -6.6347091851         0.0000000000         0.0000000000         0.0000000000         0.0000000000        23.4047937553    12 
   51     1         4.2783121576         2.4700846758         9.0434750000        -6.6347091851         0.0000000000         0.0000000000         0.0000000000         0.0000000000        23.4047937566    14 
   52     1         3.0559372554         3.8815616335         6.4596250000        -6.6347091851         0.0000000000         0.0000000000         0.0000000000         0.0000000000        23.4047937553    12 
   53     1         4.2783121576         2.4700846758        14.2111750000        -6.6347091851         0.0000000000         0.0000000000         0.0000000000         0.0000000000        23.4047937566    14 
   54     1         3.0559372554         3.8815616335        11.6273250000        -6.6347091851         0.0000000000         0.0000000000         0.0000000000         0.0000000000        23.4047937553    12 
   55     1         7.3342494130         1.4114769576         3.8757750000        -6.6347091852         0.0000000000         0.0000000000         0.0000000000         0.0000000000        23.4047937581    14 
   56     1         6.1118745108         2.8229539152         1.2919250000        -6.6347091851         0.0000000000         0.0000000000         0.0000000000         0.0000000000        23.4047937567    12 
   57     1         7.3342494130         1.4114769576         9.0434750000        -6.6347091852         0.0000000000         0.0000000000         0.0000000000         0.0000000000        23.4047937581    14 
   58     1         6.1118745108         2.8229539152         6.4596250000        -6.6347091851         0.0000000000         0.0000000000         0.0000000000         0.0000000000        23.4047937567    12 
   59     1         7.3342494130         1.4114769576        14.2111750000        -6.6347091852         0.0000000000         0.0000000000         0.0000000000         0.0000000000        23.4047937581    14 
   60     1         6.1118745108         2.8229539152        11.6273250000        -6.6347091851         0.0000000000         0.0000000000         0.0000000000         0.0000000000        23.4047937567    12 
   61     1         9.1678117662         1.7643461970         1.2919250000        -6.6347091851        -0.0000000000         0.0000000000         0.0000000000         0.0000000000        23.4047937567    14 
   62     1         9.1678117662         1.7643461970         6.4596250000        -6.6347091851         0.0000000000         0.0000000000         0.0000000000         0.0000000000        23.4047937567    14 
   63     1         9.1678117662         1.7643461970        11.6273250000        -6.6347091851         0.0000000000        -0.0000000000         0.0000000000         0.0000000000        23.4047937567    14 
   64     1         3.6671247065         5.6459078305         3.8757750000        -6.6347091851         0.0000000000         0.0000000000         0.0000000000         0.0000000000        23.4047937567    14 
   65     1         3.6671247065         5.6459078305         9.0434750000        -6.6347091851         0.0000000000         0.0000000000         0.0000000000         0.0000000000        23.4047937567    14 
   66     1         3.6671247065         5.6459078305        14.2111750000        -6.6347091851         0.0000000000         0.0000000000         0.0000000000         0.0000000000        23.4047937567    14 
   67     1         6.7230619619         4.5873001123         3.8757750000        -6.6347091851         0.0000000000         0.0000000000         0.0000000000         0.0000000000        23.4047937567    12 
   68     1         5.5006870597         5.9987770699         1.2919250000        -6.6347091852         0.0000000000         0.0000000000         0.0000000000         0.0000000000        23.4047937581    14 
   69     1         6.7230619619         4.5873001123         9.0434750000        -6.6347091851         0.0000000000         0.0000000000         0.0000000000         0.0000000000        23.4047937567    12 
   70     1         5.5006870597         5.9987770699         6.4596250000        -6.6347091852         0.0000000000         0.0000000000         0.0000000000         0.0000000000        23.4047937581    14 
   71     1         6.7230619619         4.5873001123        14.2111750000        -6.6347091851         0.0000000000         0.0000000000         0.0000000000         0.0000000000        23.4047937567    12 
   72     1         5.5006870597         5.9987770699        11.6273250000        -6.6347091852         0.0000000000         0.0000000000         0.0000000000         0.0000000000        23.4047937581    14 
   73     1         9.7789992173         3.5286923941         3.8757750000        -6.6347091851         0.0000000000         0.0000000000         0.0000000000         0.0000000000        23.4047937553    12 
   74     1         8.5566243151         4.9401693517         1.2919250000        -6.6347091851         0.0000000000         0.0000000000         0.0000000000         0.0000000000        23.4047937566    14 
   75     1         9.7789992173         3.5286923941         9.0434750000        -6.6347091851         0.0000000000         0.0000000000         0.0000000000         0.0000000000        23.4047937553    12 
   76     1         8.5566243151         4.9401693517         6.4596250000        -6.6347091851         0.0000000000        -0.0000000000         0.0000000000         0.0000000000        23.4047937566    14 
   77     1         9.7789992173         3.5286923941        14.2111750000        -6.6347091851         0.0000000000         0.0000000000         0.0000000000         0.0000000000        23.4047937553    12 
   78     1         8.5566243151         4.9401693517        11.6273250000        -6.6347091851         0.0000000000         0.0000000000         0.0000000000         0.0000000000        23.4047937566    14 
   79     1         9.1678117662         6.7045155487         3.8757750000        -6.6347091852        -0.0000000000         0.0000000000         0.0000000000         0.0000000000        23.4047937582    14 
   80     1         9.1678117662         6.7045155487         9.0434750000        -6.6347091852        -0.0000000000         0.0000000000         0.0000000000         0.0000000000        23.4047937582    14 
   81     1         9.1678117662         6.7045155487        14.2111750000        -6.6347091852         0.0000000000         0.0000000000         0.0000000000         0.0000000000        23.4047937582    14 
   82     1        11.0013741194         7.0573847881         1.2919250000        -6.6347091852         0.0000000000         0.0000000000         0.0000000000         0.0000000000        23.4047937581    14 
   83     1        11.0013741194         7.0573847881         6.4596250000        -6.6347091852         0.0000000000        -0.0000000000         0.0000000000         0.0000000000        23.4047937581    14 
   84     1        11.0013741194         7.0573847881        11.6273250000        -6.6347091852         0.0000000000         0.0000000000         0.0000000000         0.0000000000        23.4047937581    14 
