ITEM: TIMESTEP
1
ITEM: NUMBER OF ATOMS
84
ITEM: BOX BOUNDS xy xz yz pp pp pp
0.0000000000000000e+000 1.2834936472557001e+001 4.2783121575569956e+000
0.0000000000000000e+000 7.4102540280000015e+000 2.9999999999999998e-015
0.0000000000000000e+000 3.1006200000000000e+001 2.0000000000000002e-015
ITEM: ATOMS id type x y z c_peatom c_datom[1] c_datom[2] c_datom[3] c_datom[4] c_voratom[1] c_voratom[2] 
    1     1         1.8335623532         0.3528692392        19.3788750000        -6.6347091852         0.0000000000        -0.0000000002         0.0000000000         0.0000000002        23.4047937571    14 
    2     1         1.8335623532         0.3528692392        24.5465750000        -6.6347091852         0.0000000000        -0.0000000002         0.0000000000         0.0000000002        23.4047937571    14 
    3     1         1.8335623532         0.3528692392        29.7142750000        -6.6347091852         0.0000000000        -0.0000000002         0.0000000000         0.0000000002        23.4047937571    14 
    4     1         3.6671247065         0.7057384787        16.7950250000        -6.6347091852         0.0000000000        -0.0000000002         0.0000000000         0.0000000002        23.4047937571    14 
    5     1         3.6671247065         0.7057384787        21.9627250000        -6.6347091852         0.0000000000        -0.0000000002         0.0000000000         0.0000000002        23.4047937571    14 
    6     1         3.6671247065         0.7057384787        27.1304250000        -6.6347091852         0.0000000000        -0.0000000002         0.0000000000         0.0000000002        23.4047937571    14 
    7     1         4.2783121576         2.4700846757        19.3788750000        -6.6347091852         0.0000000000        -0.0000000001         0.0000000000         0.0000000001        23.4047937570    14 
    8     1         3.0559372554         3.8815616335        16.7950250000        -6.6347091852         0.0000000001         0.0000000000         0.0000000000         0.0000000001        23.4047937572    14 
    9     1         4.2783121576         2.4700846757        24.5465750000        -6.6347091852         0.0000000000        -0.0000000001         0.0000000000         0.0000000001        23.4047937570    14 
   10     1         3.0559372554         3.8815616335        21.9627250000        -6.6347091852         0.0000000001         0.0000000000         0.0000000000         0.0000000001        23.4047937572    14 
   11     1         4.2783121576         2.4700846757        29.7142750000        -6.6347091852         0.0000000000        -0.0000000001         0.0000000000         0.0000000001        23.4047937570    14 
   12     1         3.0559372554         3.8815616335        27.1304250000        -6.6347091852         0.0000000001         0.0000000000         0.0000000000         0.0000000001        23.4047937572    14 
   13     1         7.3342494129         1.4114769575        19.3788750000        -6.6347091852        -0.0000000001        -0.0000000002         0.0000000000         0.0000000002        23.4047937571    14 
   14     1         6.1118745108         2.8229539152        16.7950250000        -6.6347091852         0.0000000000        -0.0000000001         0.0000000000         0.0000000001        23.4047937571    14 
   15     1         7.3342494129         1.4114769575        24.5465750000        -6.6347091852        -0.0000000001        -0.0000000002         0.0000000000         0.0000000002        23.4047937571    14 
   16     1         6.1118745108         2.8229539152        21.9627250000        -6.6347091852         0.0000000000        -0.0000000001         0.0000000000         0.0000000001        23.4047937571    14 
   17     1         7.3342494129         1.4114769575        29.7142750000        -6.6347091852        -0.0000000001        -0.0000000002         0.0000000000         0.0000000002        23.4047937571    14 
   18     1         6.1118745108         2.8229539152        27.1304250000        -6.6347091852         0.0000000000        -0.0000000001         0.0000000000         0.0000000001        23.4047937571    14 
   19     1         9.1678117661         1.7643461969        16.7950250000        -6.6347091852        -0.0000000001        -0.0000000001         0.0000000000         0.0000000001        23.4047937571    14 
   20     1         9.1678117661         1.7643461969        21.9627250000        -6.6347091852        -0.0000000001        -0.0000000001         0.0000000000         0.0000000001        23.4047937571    14 
   21     1         9.1678117661         1.7643461969        27.1304250000        -6.6347091852        -0.0000000001        -0.0000000001         0.0000000000         0.0000000001        23.4047937571    14 
   22     1         3.6671247065         5.6459078306        19.3788750000        -6.6347091852         0.0000000001         0.0000000001         0.0000000000         0.0000000001        23.4047937571    14 
   23     1         3.6671247065         5.6459078306        24.5465750000        -6.6347091852         0.0000000001         0.0000000001         0.0000000000         0.0000000001        23.4047937571    14 
   24     1         3.6671247065         5.6459078306        29.7142750000        -6.6347091852         0.0000000001         0.0000000001         0.0000000000         0.0000000001        23.4047937571    14 
   25     1         6.7230619619         4.5873001124        19.3788750000        -6.6347091852        -0.0000000000         0.0000000001         0.0000000000         0.0000000001        23.4047937571    14 
   26     1         5.5006870598         5.9987770701        16.7950250000        -6.6347091852         0.0000000001         0.0000000002         0.0000000000         0.0000000002        23.4047937571    14 
   27     1         6.7230619619         4.5873001124        24.5465750000        -6.6347091852        -0.0000000000         0.0000000001         0.0000000000         0.0000000001        23.4047937571    14 
   28     1         5.5006870598         5.9987770701        21.9627250000        -6.6347091852         0.0000000001         0.0000000002         0.0000000000         0.0000000002        23.4047937571    14 
   29     1         6.7230619619         4.5873001124        29.7142750000        -6.6347091852        -0.0000000000         0.0000000001         0.0000000000         0.0000000001        23.4047937571    14 
   30     1         5.5006870598         5.9987770701        27.1304250000        -6.6347091852         0.0000000001         0.0000000002         0.0000000000         0.0000000002        23.4047937571    14 
   31     1         9.7789992172         3.5286923941        19.3788750000        -6.6347091852        -0.0000000001        -0.0000000000         0.0000000000         0.0000000001        23.4047937572    14 
   32     1         8.5566243151         4.9401693518        16.7950250000        -6.6347091852        -0.0000000000         0.0000000001         0.0000000000         0.0000000001        23.4047937570    14 
   33     1         9.7789992172         3.5286923941        24.5465750000        -6.6347091852        -0.0000000001        -0.0000000000         0.0000000000         0.0000000001        23.4047937572    14 
   34     1         8.5566243151         4.9401693518        21.9627250000        -6.6347091852        -0.0000000000         0.0000000001         0.0000000000         0.0000000001        23.4047937570    14 
   35     1         9.7789992172         3.5286923941        29.7142750000        -6.6347091852        -0.0000000001        -0.0000000000         0.0000000000         0.0000000001        23.4047937572    14 
   36     1         8.5566243151         4.9401693518        27.1304250000        -6.6347091852        -0.0000000000         0.0000000001         0.0000000000         0.0000000001        23.4047937570    14 
   37     1         9.1678117661         6.7045155489        19.3788750000        -6.6347091852        -0.0000000000         0.0000000002         0.0000000000         0.0000000002        23.4047937571    14 
   38     1         9.1678117661         6.7045155489        24.5465750000        -6.6347091852        -0.0000000000         0.0000000002         0.0000000000         0.0000000002        23.4047937571    14 
   39     1         9.1678117661         6.7045155489        29.7142750000        -6.6347091852        -0.0000000000         0.0000000002         0.0000000000         0.0000000002        23.4047937571    14 
   40     1        11.0013741194         7.0573847883        16.7950250000        -6.6347091852        -0.0000000000         0.0000000002         0.0000000000         0.0000000002        23.4047937571    14 
   41     1        11.0013741194         7.0573847883        21.9627250000        -6.6347091852        -0.0000000000         0.0000000002         0.0000000000         0.0000000002        23.4047937571    14 
   42     1        11.0013741194         7.0573847883        27.1304250000        -6.6347091852        -0.0000000000         0.0000000002         0.0000000000         0.0000000002        23.4047937571    14 
   43     1         1.8335623532         0.3528692392         3.8757750000        -6.6347091852         0.0000000000        -0.0000000002         0.0000000000         0.0000000002        23.4047937571    14 
   44     1         1.8335623532         0.3528692392         9.0434750000        -6.6347091852         0.0000000000        -0.0000000002         0.0000000000         0.0000000002        23.4047937571    14 
   45     1         1.8335623532         0.3528692392        14.2111750000        -6.6347091852         0.0000000000        -0.0000000002        -0.0000000000         0.0000000002        23.4047937571    14 
   46     1         3.6671247065         0.7057384787         1.2919250000        -6.6347091852         0.0000000000        -0.0000000002         0.0000000000         0.0000000002        23.4047937571    14 
   47     1         3.6671247065         0.7057384787         6.4596250000        -6.6347091852         0.0000000000        -0.0000000002         0.0000000000         0.0000000002        23.4047937571    14 
   48     1         3.6671247065         0.7057384787        11.6273250000        -6.6347091852         0.0000000000        -0.0000000002         0.0000000000         0.0000000002        23.4047937571    14 
   49     1         4.2783121576         2.4700846757         3.8757750000        -6.6347091852         0.0000000000        -0.0000000001         0.0000000000         0.0000000001        23.4047937570    14 
   50     1         3.0559372554         3.8815616335         1.2919250000        -6.6347091852         0.0000000001         0.0000000000         0.0000000000         0.0000000001        23.4047937572    14 
   51     1         4.2783121576         2.4700846757         9.0434750000        -6.6347091852         0.0000000000        -0.0000000001         0.0000000000         0.0000000001        23.4047937570    14 
   52     1         3.0559372554         3.8815616335         6.4596250000        -6.6347091852         0.0000000001         0.0000000000         0.0000000000         0.0000000001        23.4047937572    14 
   53     1         4.2783121576         2.4700846757        14.2111750000        -6.6347091852         0.0000000000        -0.0000000001        -0.0000000000         0.0000000001        23.4047937570    14 
   54     1         3.0559372554         3.8815616335        11.6273250000        -6.6347091852         0.0000000001         0.0000000000         0.0000000000         0.0000000001        23.4047937572    14 
   55     1         7.3342494129         1.4114769575         3.8757750000        -6.6347091852        -0.0000000001        -0.0000000002         0.0000000000         0.0000000002        23.4047937571    14 
   56     1         6.1118745108         2.8229539152         1.2919250000        -6.6347091852         0.0000000000        -0.0000000001         0.0000000000         0.0000000001        23.4047937571    14 
   57     1         7.3342494129         1.4114769575         9.0434750000        -6.6347091852        -0.0000000001        -0.0000000002         0.0000000000         0.0000000002        23.4047937571    14 
   58     1         6.1118745108         2.8229539152         6.4596250000        -6.6347091852         0.0000000000        -0.0000000001         0.0000000000         0.0000000001        23.4047937571    14 
   59     1         7.3342494129         1.4114769575        14.2111750000        -6.6347091852        -0.0000000001        -0.0000000002        -0.0000000000         0.0000000002        23.4047937571    14 
   60     1         6.1118745108         2.8229539152        11.6273250000        -6.6347091852         0.0000000000        -0.0000000001         0.0000000000         0.0000000001        23.4047937571    14 
   61     1         9.1678117661         1.7643461969         1.2919250000        -6.6347091852        -0.0000000001        -0.0000000001         0.0000000000         0.0000000001        23.4047937571    14 
   62     1         9.1678117661         1.7643461969         6.4596250000        -6.6347091852        -0.0000000001        -0.0000000001         0.0000000000         0.0000000001        23.4047937571    14 
   63     1         9.1678117661         1.7643461969        11.6273250000        -6.6347091852        -0.0000000001        -0.0000000001         0.0000000000         0.0000000001        23.4047937571    14 
   64     1         3.6671247065         5.6459078306         3.8757750000        -6.6347091852         0.0000000001         0.0000000001         0.0000000000         0.0000000001        23.4047937571    14 
   65     1         3.6671247065         5.6459078306         9.0434750000        -6.6347091852         0.0000000001         0.0000000001         0.0000000000         0.0000000001        23.4047937571    14 
   66     1         3.6671247065         5.6459078306        14.2111750000        -6.6347091852         0.0000000001         0.0000000001        -0.0000000000         0.0000000001        23.4047937571    14 
   67     1         6.7230619619         4.5873001124         3.8757750000        -6.6347091852        -0.0000000000         0.0000000001         0.0000000000         0.0000000001        23.4047937571    14 
   68     1         5.5006870598         5.9987770701         1.2919250000        -6.6347091852         0.0000000001         0.0000000002         0.0000000000         0.0000000002        23.4047937571    14 
   69     1         6.7230619619         4.5873001124         9.0434750000        -6.6347091852        -0.0000000000         0.0000000001         0.0000000000         0.0000000001        23.4047937571    14 
   70     1         5.5006870598         5.9987770701         6.4596250000        -6.6347091852         0.0000000001         0.0000000002         0.0000000000         0.0000000002        23.4047937571    14 
   71     1         6.7230619619         4.5873001124        14.2111750000        -6.6347091852        -0.0000000000         0.0000000001        -0.0000000000         0.0000000001        23.4047937571    14 
   72     1         5.5006870598         5.9987770701        11.6273250000        -6.6347091852         0.0000000001         0.0000000002         0.0000000000         0.0000000002        23.4047937571    14 
   73     1         9.7789992172         3.5286923941         3.8757750000        -6.6347091852        -0.0000000001        -0.0000000000         0.0000000000         0.0000000001        23.4047937572    14 
   74     1         8.5566243151         4.9401693518         1.2919250000        -6.6347091852        -0.0000000000         0.0000000001         0.0000000000         0.0000000001        23.4047937570    14 
   75     1         9.7789992172         3.5286923941         9.0434750000        -6.6347091852        -0.0000000001        -0.0000000000         0.0000000000         0.0000000001        23.4047937572    14 
   76     1         8.5566243151         4.9401693518         6.4596250000        -6.6347091852        -0.0000000000         0.0000000001         0.0000000000         0.0000000001        23.4047937570    14 
   77     1         9.7789992172         3.5286923941        14.2111750000        -6.6347091852        -0.0000000001        -0.0000000000        -0.0000000000         0.0000000001        23.4047937572    14 
   78     1         8.5566243151         4.9401693518        11.6273250000        -6.6347091852        -0.0000000000         0.0000000001         0.0000000000         0.0000000001        23.4047937570    14 
   79     1         9.1678117661         6.7045155489         3.8757750000        -6.6347091852        -0.0000000000         0.0000000002         0.0000000000         0.0000000002        23.4047937571    14 
   80     1         9.1678117661         6.7045155489         9.0434750000        -6.6347091852        -0.0000000000         0.0000000002         0.0000000000         0.0000000002        23.4047937571    14 
   81     1         9.1678117661         6.7045155489        14.2111750000        -6.6347091852        -0.0000000000         0.0000000002        -0.0000000000         0.0000000002        23.4047937571    14 
   82     1        11.0013741194         7.0573847883         1.2919250000        -6.6347091852        -0.0000000000         0.0000000002         0.0000000000         0.0000000002        23.4047937571    14 
   83     1        11.0013741194         7.0573847883         6.4596250000        -6.6347091852        -0.0000000000         0.0000000002         0.0000000000         0.0000000002        23.4047937571    14 
   84     1        11.0013741194         7.0573847883        11.6273250000        -6.6347091852        -0.0000000000         0.0000000002         0.0000000000         0.0000000002        23.4047937571    14 
