Header

152 atoms
1 atom types

0.0    5.167700000 xlo xhi
0.0   14.097115073 ylo yhi
0.0   48.833839094 zlo zhi

0.000000000000002        0.000000000000006        28.194230146609801       xy xz yz

Atoms

       1    1       1.291925000000003       15.210045210671078       25.916204080703551
       2    1       3.875775000000002       16.322975348037257       27.415488614297974
       3    1       3.875775000000003       18.919812335225000       25.487837071105151
       4    1       1.291925000000003       18.177858910314217       27.201305109498772
       5    1       1.291925000000003       20.774695897501960       25.273653566305946
       6    1       3.875775000000003       19.290789047680391       28.700589643093195
       7    1       1.291925000000003       18.548835622769609       30.414057681486813
       8    1       3.875775000000003       21.887626034868134       26.772938099900369
       9    1       1.291925000000003       21.145672609957352       28.486406138293987
      10    1       3.875775000000003       24.484463022055877       24.845286556707542
      11    1       1.291925000000004       23.742509597145094       26.558754595101163
      12    1       1.291925000000004       26.339346584332837       24.631103051908337
      13    1       3.875775000000003       19.661765760135783       31.913342215081236
      14    1       3.875775000000003       22.258602747323526       29.985690671888410
      15    1       1.291925000000004       21.516649322412743       31.699158710282031
      16    1       3.875775000000003       24.855439734511268       28.058039128695587
      17    1       1.291925000000004       24.113486309600486       29.771507167089204
      18    1       3.875775000000004       27.452276721699015       26.130387585502760
      19    1       1.291925000000004       26.710323296788228       27.843855623896378
      20    1       3.875775000000003       22.629579459778917       33.198443243876447
      21    1       1.291925000000004       21.887626034868138       34.911911282270083
      22    1       3.875775000000004       25.226416446966660       31.270791700683624
      23    1       1.291925000000004       24.484463022055881       32.984259739077253
      24    1       3.875775000000004       27.823253434154406       29.343140157490797
      25    1       1.291925000000004       27.081300009243623       31.056608195884429
      26    1       1.291925000000004       29.678136996431366       29.128956652691603
      27    1       3.875775000000004       23.000556172234315       36.411195815864502
      28    1       1.291925000000004       22.258602747323529       38.124663854258124
      29    1       3.875775000000004       25.597393159422062       34.483544272671672
      30    1       1.291925000000004       24.855439734511275       36.197012311065301
      31    1       3.875775000000004       28.194230146609804       32.555892729478842
      32    1       1.291925000000004       27.452276721699018       34.269360767872477
      33    1       3.875775000000004       30.791067133797551       30.628241186286019
      34    1       1.291925000000005       30.049113708886761       32.341709224679654
      35    1       3.875775000000004       23.371532884689707       39.623948387852543
      36    1       3.875775000000004       25.968369871877453       37.696296844659713
      37    1       1.291925000000004       25.226416446966667       39.409764883053342
      38    1       3.875775000000004       28.565206859065196       35.768645301466890
      39    1       1.291925000000005       27.823253434154410       37.482113339860518
      40    1       3.875775000000004       31.162043846252942       33.840993758274060
      41    1       1.291925000000005       30.420090421342152       35.554461796667695
      42    1       1.291925000000005       33.016927408529895       33.626810253474865
      43    1       3.875775000000004       26.339346584332844       40.909049416647754
      44    1       1.291925000000005       25.597393159422062       42.622517455041390
      45    1       3.875775000000004       28.936183571520587       38.981397873454931
      46    1       1.291925000000005       28.194230146609801       40.694865911848559
      47    1       3.875775000000004       31.533020558708333       37.053746330262101
      48    1       1.291925000000005       30.791067133797547       38.767214368655736
      49    1       3.875775000000005       34.129857545896073       35.126094787069277
      50    1       1.291925000000005       33.387904120985290       36.839562825462913
      51    1       3.875775000000004       26.710323296788236       44.121801988635809
      52    1       3.875775000000004       29.307160283975982       42.194150445442979
      53    1       1.291925000000005       28.565206859065192       43.907618483836600
      54    1       3.875775000000005       31.903997271163725       40.266498902250156
      55    1       1.291925000000005       31.162043846252939       41.979966940643777
      56    1       3.875775000000005       34.500834258351475       38.338847359057333
      57    1       1.291925000000005       33.758880833440678       40.052315397450940
      58    1       3.875775000000005       29.678136996431373       45.406903017431020
      59    1       1.291925000000005       28.936183571520591       47.120371055824648
      60    1       3.875775000000005       32.274973983619120       43.479251474238197
      61    1       1.291925000000005       31.533020558708333       45.192719512631818
      62    1       3.875775000000005       34.871810970806870       41.551599931045374
      63    1       1.291925000000006       34.129857545896080       43.265067969438995
      64    1       1.291925000000006       36.726694533083823       41.337416426246172
      65    1       3.875775000000005       30.049113708886761       48.619655589419061
      66    1       3.875775000000005       32.645950696074514       46.692004046226245
      67    1       1.291925000000006       31.903997271163721       48.405472084619859
      68    1       3.875775000000005       35.242787683262257       44.764352503033422
      69    1       1.291925000000006       34.500834258351468       46.477820541427036
      70    1       3.875775000000005       37.839624670450000       42.836700959840591
      71    1       1.291925000000006       37.097671245539217       44.550168998234213
      72    1       3.875775000000005       35.613764395717652       47.977105075021463
      73    1       3.875775000000006       38.210601382905395       46.049453531828632
      74    1       1.291925000000006       37.468647957994605       47.762921570222254
      75    1       1.291925000000006       40.065484945182348       45.835270027029424
      76    1       3.875775000000006       41.178415082548518       47.334554560623850
      77    1       1.291925000000000        1.112930137366175        1.499284533594414
      78    1       3.875775000000000        2.225860274732351        2.998569067188840
      79    1       3.875775000000000        4.822697261920098        1.070917523996016
      80    1       1.291925000000000        4.080743837009311        2.784385562389630
      81    1       1.291925000000000        6.677580824197054        0.856734019196804
      82    1       3.875775000000000        5.193673974375487        4.283670095984052
      83    1       1.291925000000000        4.451720549464705        5.997138134377679
      84    1       3.875775000000000        7.790510961563228        2.356018552791226
      85    1       1.291925000000001        7.048557536652448        4.069486591184853
      86    1       3.875775000000000       10.387347948750973        0.428367009598399
      87    1       1.291925000000001        9.645394523840192        2.141835047992027
      88    1       1.291925000000001       12.242231511027937        0.214183504799204
      89    1       3.875775000000000        5.564650686830880        7.496422667972098
      90    1       3.875775000000000        8.161487674018623        5.568771124779271
      91    1       1.291925000000001        7.419534249107841        7.282239163172899
      92    1       3.875775000000000       10.758324661206368        3.641119581586445
      93    1       1.291925000000001       10.016371236295583        5.354587619980073
      94    1       3.875775000000001       13.355161648394111        1.713468038393618
      95    1       1.291925000000001       12.613208223483330        3.426936076787245
      96    1       3.875775000000000        8.532464386474016        8.781523696767314
      97    1       1.291925000000001        7.790510961563233       10.494991735160941
      98    1       3.875775000000001       11.129301373661759        6.853872153574487
      99    1       1.291925000000001       10.387347948750978        8.567340191968116
     100    1       3.875775000000001       13.726138360849504        4.926220610381660
     101    1       1.291925000000001       12.984184935938721        6.639688648775289
     102    1       1.291925000000002       15.581021923126464        4.712037105582463
     103    1       3.875775000000001        8.903441098929409       11.994276268755360
     104    1       1.291925000000001        8.161487674018627       13.707744307148985
     105    1       3.875775000000001       11.500278086117152       10.066624725562535
     106    1       1.291925000000001       10.758324661206371       11.780092763956162
     107    1       3.875775000000001       14.097115073304899        8.138973182369707
     108    1       1.291925000000002       13.355161648394116        9.852441220763337
     109    1       3.875775000000001       16.693952060492641        6.211321639176882
     110    1       1.291925000000002       15.951998635581859        7.924789677570510
     111    1       3.875775000000001        9.274417811384804       15.207028840743407
     112    1       3.875775000000001       11.871254798572547       13.279377297550580
     113    1       1.291925000000002       11.129301373661763       14.992845335944201
     114    1       3.875775000000001       14.468091785760288       11.351725754357753
     115    1       1.291925000000002       13.726138360849506       13.065193792751375
     116    1       3.875775000000001       17.064928772948036        9.424074211164928
     117    1       1.291925000000002       16.322975348037250       11.137542249558550
     118    1       1.291925000000002       18.919812335224993        9.209890706365723
     119    1       3.875775000000001       12.242231511027940       16.492129869538623
     120    1       1.291925000000002       11.500278086117156       18.205597907932244
     121    1       3.875775000000001       14.839068498215683       14.564478326345796
     122    1       1.291925000000002       14.097115073304899       16.277946364739417
     123    1       3.875775000000002       17.435905485403424       12.636826783152971
     124    1       1.291925000000002       16.693952060492641       14.350294821546594
     125    1       3.875775000000002       20.032742472591174       10.709175239960148
     126    1       1.291925000000002       19.290789047680384       12.422643278353767
     127    1       3.875775000000001       12.613208223483333       19.704882441526667
     128    1       3.875775000000002       15.210045210671076       17.777230898333837
     129    1       1.291925000000002       14.468091785760294       19.490698936727465
     130    1       3.875775000000002       17.806882197858819       15.849579355141016
     131    1       1.291925000000002       17.064928772948036       17.563047393534639
     132    1       3.875775000000002       20.403719185046562       13.921927811948191
     133    1       1.291925000000003       19.661765760135779       15.635395850341812
     134    1       3.875775000000002       15.581021923126467       20.989983470321885
     135    1       1.291925000000002       14.839068498215683       22.703451508715506
     136    1       3.875775000000002       18.177858910314210       19.062331927129058
     137    1       1.291925000000003       17.435905485403428       20.775799965522680
     138    1       3.875775000000002       20.774695897501957       17.134680383936232
     139    1       1.291925000000003       20.032742472591170       18.848148422329857
     140    1       1.291925000000003       22.629579459778917       16.920496879137033
     141    1       3.875775000000002       15.951998635581861       24.202736042309930
     142    1       3.875775000000002       18.548835622769605       22.275084499117103
     143    1       1.291925000000003       17.806882197858823       23.988552537510728
     144    1       3.875775000000003       21.145672609957348       20.347432955924276
     145    1       1.291925000000003       20.403719185046565       22.060900994317901
     146    1       3.875775000000003       23.742509597145091       18.419781412731453
     147    1       1.291925000000003       23.000556172234312       20.133249451125074
     148    1       3.875775000000003       21.516649322412743       23.560185527912324
     149    1       3.875775000000003       24.113486309600489       21.632533984719498
     150    1       1.291925000000003       23.371532884689703       23.346002023113119
     151    1       1.291925000000004       25.968369871877449       21.418350479920292
     152    1       3.875775000000003       27.081300009243623       22.917635013514715
