ITEM: TIMESTEP
0
ITEM: NUMBER OF ATOMS
152
ITEM: BOX BOUNDS xy xz yz pp pp pp
0.0000000000000000e+000 5.1677000000000080e+000 2.0000000000000002e-015
0.0000000000000000e+000 4.2291345219609802e+001 5.9999999999999997e-015
0.0000000000000000e+000 4.8833839093999998e+001 2.8194230146609801e+001
ITEM: ATOMS id type x y z c_peatom c_datom[1] c_datom[2] c_datom[3] c_datom[4] c_voratom[1] c_voratom[2] 
    1     1         1.2919250000        15.2100452107        25.9162040807        -6.6347091851        -0.0000000000         0.0000000000         0.0000000000         0.0000000000        23.4047937544    12 
    2     1         3.8757750000        16.3229753480        27.4154886143        -6.6347091852         0.0000000000        -0.0000000000         0.0000000000         0.0000000000        23.4047937548    14 
    3     1         3.8757750000        18.9198123352        25.4878370711        -6.6347091852        -0.0000000000        -0.0000000000         0.0000000000         0.0000000000        23.4047937559    12 
    4     1         1.2919250000        18.1778589103        27.2013051095        -6.6347091852         0.0000000000        -0.0000000000        -0.0000000000         0.0000000000        23.4047937555    12 
    5     1         1.2919250000        20.7746958975        25.2736535663        -6.6347091852         0.0000000000        -0.0000000000         0.0000000000         0.0000000000        23.4047937559    12 
    6     1         3.8757750000        19.2907890477        28.7005896431        -6.6347091852        -0.0000000000         0.0000000000         0.0000000000         0.0000000000        23.4047937555    14 
    7     1         1.2919250000        18.5488356228        30.4140576815        -6.6347091851         0.0000000000         0.0000000000         0.0000000000         0.0000000000        23.4047937544    12 
    8     1         3.8757750000        21.8876260349        26.7729380999        -6.6347091852        -0.0000000000         0.0000000000         0.0000000000         0.0000000000        23.4047937559    12 
    9     1         1.2919250000        21.1456726100        28.4864061383        -6.6347091852         0.0000000000         0.0000000000         0.0000000000         0.0000000000        23.4047937559    12 
   10     1         3.8757750000        24.4844630221        24.8452865567        -6.6347091852        -0.0000000000         0.0000000000         0.0000000000         0.0000000000        23.4047937559    12 
   11     1         1.2919250000        23.7425095971        26.5587545951        -6.6347091852        -0.0000000000         0.0000000000         0.0000000000         0.0000000000        23.4047937559    12 
   12     1         1.2919250000        26.3393465843        24.6311030519        -6.6347091852         0.0000000000         0.0000000000         0.0000000000         0.0000000000        23.4047937550    14 
   13     1         3.8757750000        19.6617657601        31.9133422151        -6.6347091852        -0.0000000000         0.0000000000         0.0000000000         0.0000000000        23.4047937548    14 
   14     1         3.8757750000        22.2586027473        29.9856906719        -6.6347091852        -0.0000000000         0.0000000000         0.0000000000         0.0000000000        23.4047937559    12 
   15     1         1.2919250000        21.5166493224        31.6991587103        -6.6347091852         0.0000000000         0.0000000000        -0.0000000000         0.0000000000        23.4047937555    12 
   16     1         3.8757750000        24.8554397345        28.0580391287        -6.6347091852         0.0000000000         0.0000000000         0.0000000000         0.0000000000        23.4047937559    12 
   17     1         1.2919250000        24.1134863096        29.7715071671        -6.6347091852        -0.0000000000         0.0000000000         0.0000000000         0.0000000000        23.4047937559    12 
   18     1         3.8757750000        27.4522767217        26.1303875855        -6.6347091851        -0.0000000000         0.0000000000         0.0000000000         0.0000000000        23.4047937543    12 
   19     1         1.2919250000        26.7103232968        27.8438556239        -6.6347091852         0.0000000000         0.0000000000         0.0000000000         0.0000000000        23.4047937555    14 
   20     1         3.8757750000        22.6295794598        33.1984432439        -6.6347091852        -0.0000000000         0.0000000000         0.0000000000         0.0000000000        23.4047937555    14 
   21     1         1.2919250000        21.8876260349        34.9119112823        -6.6347091851        -0.0000000000        -0.0000000000         0.0000000000         0.0000000000        23.4047937543    12 
   22     1         3.8757750000        25.2264164470        31.2707917007        -6.6347091852         0.0000000000         0.0000000000         0.0000000000         0.0000000000        23.4047937559    12 
   23     1         1.2919250000        24.4844630221        32.9842597391        -6.6347091852         0.0000000000        -0.0000000000         0.0000000000         0.0000000000        23.4047937559    12 
   24     1         3.8757750000        27.8232534342        29.3431401575        -6.6347091852        -0.0000000000         0.0000000000         0.0000000000         0.0000000000        23.4047937555    12 
   25     1         1.2919250000        27.0813000092        31.0566081959        -6.6347091852         0.0000000000        -0.0000000000         0.0000000000         0.0000000000        23.4047937559    12 
   26     1         1.2919250000        29.6781369964        29.1289566527        -6.6347091852         0.0000000000         0.0000000000         0.0000000000         0.0000000000        23.4047937548    14 
   27     1         3.8757750000        23.0005561722        36.4111958159        -6.6347091852        -0.0000000000        -0.0000000000         0.0000000000         0.0000000000        23.4047937550    14 
   28     1         1.2919250000        22.2586027473        38.1246638543        -6.6347091851         0.0000000000         0.0000000000         0.0000000000         0.0000000000        23.4047937544    12 
   29     1         3.8757750000        25.5973931594        34.4835442727        -6.6347091852         0.0000000000         0.0000000000         0.0000000000         0.0000000000        23.4047937559    12 
   30     1         1.2919250000        24.8554397345        36.1970123111        -6.6347091852         0.0000000000         0.0000000000         0.0000000000         0.0000000000        23.4047937559    12 
   31     1         3.8757750000        28.1942301466        32.5558927295        -6.6347091852         0.0000000000         0.0000000000         0.0000000000         0.0000000000        23.4047937559    12 
   32     1         1.2919250000        27.4522767217        34.2693607679        -6.6347091852         0.0000000000         0.0000000000         0.0000000000         0.0000000000        23.4047937559    12 
   33     1         3.8757750000        30.7910671338        30.6282411863        -6.6347091851        -0.0000000000        -0.0000000000         0.0000000000         0.0000000000        23.4047937544    12 
   34     1         1.2919250000        30.0491137089        32.3417092247        -6.6347091852         0.0000000000         0.0000000000         0.0000000000         0.0000000000        23.4047937555    14 
   35     1         3.8757750000        23.3715328847        39.6239483879        -6.6347091852        -0.0000000000        -0.0000000000         0.0000000000         0.0000000000        23.4047937548    14 
   36     1         3.8757750000        25.9683698719        37.6962968447        -6.6347091852        -0.0000000000         0.0000000000         0.0000000000         0.0000000000        23.4047937559    12 
   37     1         1.2919250000        25.2264164470        39.4097648831        -6.6347091852         0.0000000000         0.0000000000         0.0000000000         0.0000000000        23.4047937555    12 
   38     1         3.8757750000        28.5652068591        35.7686453015        -6.6347091852         0.0000000000        -0.0000000000         0.0000000000         0.0000000000        23.4047937559    12 
   39     1         1.2919250000        27.8232534342        37.4821133399        -6.6347091852         0.0000000000         0.0000000000         0.0000000000         0.0000000000        23.4047937559    12 
   40     1         3.8757750000        31.1620438463        33.8409937583        -6.6347091852         0.0000000000        -0.0000000000         0.0000000000         0.0000000000        23.4047937555    12 
   41     1         1.2919250000        30.4200904213        35.5544617967        -6.6347091852         0.0000000000        -0.0000000000         0.0000000000         0.0000000000        23.4047937559    12 
   42     1         1.2919250000        33.0169274085        33.6268102535        -6.6347091852         0.0000000000         0.0000000000         0.0000000000         0.0000000000        23.4047937548    14 
   43     1         3.8757750000        26.3393465843        40.9090494166        -6.6347091852        -0.0000000000         0.0000000000         0.0000000000         0.0000000000        23.4047937555    14 
   44     1         1.2919250000        25.5973931594        42.6225174550        -6.6347091851         0.0000000000         0.0000000000         0.0000000000         0.0000000000        23.4047937544    12 
   45     1         3.8757750000        28.9361835715        38.9813978735        -6.6347091852         0.0000000000         0.0000000000         0.0000000000         0.0000000000        23.4047937559    12 
   46     1         1.2919250000        28.1942301466        40.6948659118        -6.6347091852         0.0000000000         0.0000000000         0.0000000000         0.0000000000        23.4047937559    12 
   47     1         3.8757750000        31.5330205587        37.0537463303        -6.6347091852        -0.0000000000         0.0000000000         0.0000000000         0.0000000000        23.4047937559    12 
   48     1         1.2919250000        30.7910671338        38.7672143687        -6.6347091852         0.0000000000        -0.0000000000         0.0000000000         0.0000000000        23.4047937559    12 
   49     1         3.8757750000        34.1298575459        35.1260947871        -6.6347091851        -0.0000000000         0.0000000000         0.0000000000         0.0000000000        23.4047937544    12 
   50     1         1.2919250000        33.3879041210        36.8395628255        -6.6347091852        -0.0000000000         0.0000000000         0.0000000000         0.0000000000        23.4047937550    14 
   51     1         3.8757750000        26.7103232968        44.1218019886        -6.6347091852        -0.0000000000         0.0000000000         0.0000000000         0.0000000000        23.4047937548    14 
   52     1         3.8757750000        29.3071602840        42.1941504454        -6.6347091852         0.0000000000         0.0000000000         0.0000000000         0.0000000000        23.4047937559    12 
   53     1         1.2919250000        28.5652068591        43.9076184838        -6.6347091852         0.0000000000         0.0000000000         0.0000000000         0.0000000000        23.4047937555    12 
   54     1         3.8757750000        31.9039972712        40.2664989023        -6.6347091852        -0.0000000000         0.0000000000         0.0000000000         0.0000000000        23.4047937559    12 
   55     1         1.2919250000        31.1620438463        41.9799669406        -6.6347091852         0.0000000000         0.0000000000         0.0000000000         0.0000000000        23.4047937559    12 
   56     1         3.8757750000        34.5008342584        38.3388473591        -6.6347091851        -0.0000000000        -0.0000000000         0.0000000000         0.0000000000        23.4047937543    12 
   57     1         1.2919250000        33.7588808334        40.0523153975        -6.6347091852         0.0000000000         0.0000000000         0.0000000000         0.0000000000        23.4047937555    14 
   58     1         3.8757750000        29.6781369964        45.4069030174        -6.6347091852         0.0000000000         0.0000000000         0.0000000000         0.0000000000        23.4047937555    14 
   59     1         1.2919250000        28.9361835715        47.1203710558        -6.6347091851         0.0000000000         0.0000000000         0.0000000000         0.0000000000        23.4047937537    12 
   60     1         3.8757750000        32.2749739836        43.4792514742        -6.6347091852        -0.0000000000         0.0000000000         0.0000000000         0.0000000000        23.4047937559    12 
   61     1         1.2919250000        31.5330205587        45.1927195126        -6.6347091852        -0.0000000000         0.0000000000         0.0000000000         0.0000000000        23.4047937559    12 
   62     1         3.8757750000        34.8718109708        41.5515999310        -6.6347091852        -0.0000000000         0.0000000000         0.0000000000         0.0000000000        23.4047937555    12 
   63     1         1.2919250000        34.1298575459        43.2650679694        -6.6347091852         0.0000000000        -0.0000000000         0.0000000000         0.0000000000        23.4047937559    12 
   64     1         1.2919250000        36.7266945331        41.3374164262        -6.6347091852         0.0000000000        -0.0000000000         0.0000000000         0.0000000000        23.4047937548    14 
   65     1         3.8757750000        30.0491137089        48.6196555894        -6.6347091851         0.0000000000         0.0000000000         0.0000000000         0.0000000000        23.4047937538    12 
   66     1         3.8757750000        32.6459506961        46.6920040462        -6.6347091852         0.0000000000         0.0000000000         0.0000000000         0.0000000000        23.4047937555    12 
   67     1         1.2919250000        31.9039972712        48.4054720846        -6.6347091852         0.0000000000        -0.0000000000         0.0000000000         0.0000000000        23.4047937548    14 
   68     1         3.8757750000        35.2427876833        44.7643525030        -6.6347091852        -0.0000000000         0.0000000000         0.0000000000         0.0000000000        23.4047937559    12 
   69     1         1.2919250000        34.5008342584        46.4778205414        -6.6347091852         0.0000000000         0.0000000000         0.0000000000         0.0000000000        23.4047937555    14 
   70     1         3.8757750000        37.8396246704        42.8367009598        -6.6347091851         0.0000000000        -0.0000000000         0.0000000000         0.0000000000        23.4047937544    12 
   71     1         1.2919250000        37.0976712455        44.5501689982        -6.6347091852         0.0000000000         0.0000000000         0.0000000000         0.0000000000        23.4047937555    14 
   72     1         3.8757750000        35.6137643957        47.9771050750        -6.6347091851         0.0000000000        -0.0000000000         0.0000000000         0.0000000000        23.4047937547    12 
   73     1         3.8757750000        38.2106013829        46.0494535318        -6.6347091852         0.0000000000         0.0000000000         0.0000000000         0.0000000000        23.4047937551    12 
   74     1         1.2919250000        37.4686479580        47.7629215702        -6.6347091852        -0.0000000000         0.0000000000         0.0000000000         0.0000000000        23.4047937548    14 
   75     1         1.2919250000        40.0654849452        45.8352700270        -6.6347091852         0.0000000000         0.0000000000         0.0000000000         0.0000000000        23.4047937544    16 
   76     1         3.8757750000        41.1784150825        47.3345545606        -6.6347091851         0.0000000000         0.0000000000         0.0000000000         0.0000000000        23.4047937533    14 
   77     1         1.2919250000         1.1129301374         1.4992845336        -6.6347091851         0.0000000000         0.0000000000         0.0000000000         0.0000000000        23.4047937533    14 
   78     1         3.8757750000         2.2258602747         2.9985690672        -6.6347091852         0.0000000000         0.0000000000         0.0000000000         0.0000000000        23.4047937544    16 
   79     1         3.8757750000         4.8226972619         1.0709175240        -6.6347091852         0.0000000000         0.0000000000         0.0000000000         0.0000000000        23.4047937548    14 
   80     1         1.2919250000         4.0807438370         2.7843855624        -6.6347091852         0.0000000000         0.0000000000         0.0000000000         0.0000000000        23.4047937551    12 
   81     1         1.2919250000         6.6775808242         0.8567340192        -6.6347091851        -0.0000000000         0.0000000000         0.0000000000         0.0000000000        23.4047937547    12 
   82     1         3.8757750000         5.1936739744         4.2836700960        -6.6347091852         0.0000000000         0.0000000000         0.0000000000         0.0000000000        23.4047937555    14 
   83     1         1.2919250000         4.4517205495         5.9971381344        -6.6347091851         0.0000000000         0.0000000000         0.0000000000         0.0000000000        23.4047937544    12 
   84     1         3.8757750000         7.7905109616         2.3560185528        -6.6347091852         0.0000000000         0.0000000000         0.0000000000         0.0000000000        23.4047937555    14 
   85     1         1.2919250000         7.0485575367         4.0694865912        -6.6347091852         0.0000000000         0.0000000000         0.0000000000         0.0000000000        23.4047937559    12 
   86     1         3.8757750000        10.3873479488         0.4283670096        -6.6347091852        -0.0000000000         0.0000000000         0.0000000000         0.0000000000        23.4047937548    14 
   87     1         1.2919250000         9.6453945238         2.1418350480        -6.6347091852        -0.0000000000         0.0000000000         0.0000000000         0.0000000000        23.4047937555    12 
   88     1         1.2919250000        12.2422315110         0.2141835048        -6.6347091851         0.0000000000        -0.0000000000         0.0000000000         0.0000000000        23.4047937538    12 
   89     1         3.8757750000         5.5646506868         7.4964226680        -6.6347091852        -0.0000000000         0.0000000000         0.0000000000         0.0000000000        23.4047937548    14 
   90     1         3.8757750000         8.1614876740         5.5687711248        -6.6347091852         0.0000000000        -0.0000000000         0.0000000000         0.0000000000        23.4047937559    12 
   91     1         1.2919250000         7.4195342491         7.2822391632        -6.6347091852         0.0000000000         0.0000000000         0.0000000000         0.0000000000        23.4047937555    12 
   92     1         3.8757750000        10.7583246612         3.6411195816        -6.6347091852         0.0000000000        -0.0000000000         0.0000000000         0.0000000000        23.4047937559    12 
   93     1         1.2919250000        10.0163712363         5.3545876200        -6.6347091852        -0.0000000000        -0.0000000000         0.0000000000         0.0000000000        23.4047937559    12 
   94     1         3.8757750000        13.3551616484         1.7134680384        -6.6347091851        -0.0000000000         0.0000000000         0.0000000000         0.0000000000        23.4047937537    12 
   95     1         1.2919250000        12.6132082235         3.4269360768        -6.6347091852         0.0000000000         0.0000000000         0.0000000000         0.0000000000        23.4047937555    14 
   96     1         3.8757750000         8.5324643865         8.7815236968        -6.6347091852        -0.0000000000         0.0000000000         0.0000000000         0.0000000000        23.4047937555    14 
   97     1         1.2919250000         7.7905109616        10.4949917352        -6.6347091851         0.0000000000         0.0000000000         0.0000000000         0.0000000000        23.4047937543    12 
   98     1         3.8757750000        11.1293013737         6.8538721536        -6.6347091852        -0.0000000000         0.0000000000         0.0000000000         0.0000000000        23.4047937559    12 
   99     1         1.2919250000        10.3873479488         8.5673401920        -6.6347091852         0.0000000000         0.0000000000         0.0000000000         0.0000000000        23.4047937559    12 
  100     1         3.8757750000        13.7261383608         4.9262206104        -6.6347091852        -0.0000000000        -0.0000000000         0.0000000000         0.0000000000        23.4047937555    12 
  101     1         1.2919250000        12.9841849359         6.6396886488        -6.6347091852         0.0000000000         0.0000000000         0.0000000000         0.0000000000        23.4047937559    12 
  102     1         1.2919250000        15.5810219231         4.7120371056        -6.6347091852         0.0000000000         0.0000000000         0.0000000000         0.0000000000        23.4047937548    14 
  103     1         3.8757750000         8.9034410989        11.9942762688        -6.6347091852        -0.0000000000        -0.0000000000         0.0000000000         0.0000000000        23.4047937550    14 
  104     1         1.2919250000         8.1614876740        13.7077443071        -6.6347091851         0.0000000000        -0.0000000000         0.0000000000         0.0000000000        23.4047937544    12 
  105     1         3.8757750000        11.5002780861        10.0666247256        -6.6347091852        -0.0000000000         0.0000000000         0.0000000000         0.0000000000        23.4047937559    12 
  106     1         1.2919250000        10.7583246612        11.7800927640        -6.6347091852         0.0000000000         0.0000000000         0.0000000000         0.0000000000        23.4047937559    12 
  107     1         3.8757750000        14.0971150733         8.1389731824        -6.6347091852        -0.0000000000         0.0000000000         0.0000000000         0.0000000000        23.4047937559    12 
  108     1         1.2919250000        13.3551616484         9.8524412208        -6.6347091852        -0.0000000000         0.0000000000         0.0000000000         0.0000000000        23.4047937559    12 
  109     1         3.8757750000        16.6939520605         6.2113216392        -6.6347091851         0.0000000000         0.0000000000         0.0000000000         0.0000000000        23.4047937544    12 
  110     1         1.2919250000        15.9519986356         7.9247896776        -6.6347091852        -0.0000000000         0.0000000000         0.0000000000         0.0000000000        23.4047937555    14 
  111     1         3.8757750000         9.2744178114        15.2070288407        -6.6347091852        -0.0000000000         0.0000000000         0.0000000000         0.0000000000        23.4047937548    14 
  112     1         3.8757750000        11.8712547986        13.2793772976        -6.6347091852        -0.0000000000        -0.0000000000        -0.0000000000         0.0000000000        23.4047937559    12 
  113     1         1.2919250000        11.1293013737        14.9928453359        -6.6347091852         0.0000000000         0.0000000000         0.0000000000         0.0000000000        23.4047937555    12 
  114     1         3.8757750000        14.4680917858        11.3517257544        -6.6347091852        -0.0000000000         0.0000000000         0.0000000000         0.0000000000        23.4047937559    12 
  115     1         1.2919250000        13.7261383608        13.0651937928        -6.6347091852        -0.0000000000         0.0000000000         0.0000000000         0.0000000000        23.4047937559    12 
  116     1         3.8757750000        17.0649287729         9.4240742112        -6.6347091852         0.0000000000         0.0000000000         0.0000000000         0.0000000000        23.4047937555    12 
  117     1         1.2919250000        16.3229753480        11.1375422496        -6.6347091852         0.0000000000         0.0000000000         0.0000000000         0.0000000000        23.4047937559    12 
  118     1         1.2919250000        18.9198123352         9.2098907064        -6.6347091852         0.0000000000         0.0000000000         0.0000000000         0.0000000000        23.4047937548    14 
  119     1         3.8757750000        12.2422315110        16.4921298695        -6.6347091852         0.0000000000        -0.0000000000         0.0000000000         0.0000000000        23.4047937555    14 
  120     1         1.2919250000        11.5002780861        18.2055979079        -6.6347091851         0.0000000000        -0.0000000000         0.0000000000         0.0000000000        23.4047937544    12 
  121     1         3.8757750000        14.8390684982        14.5644783263        -6.6347091852        -0.0000000000         0.0000000000         0.0000000000         0.0000000000        23.4047937559    12 
  122     1         1.2919250000        14.0971150733        16.2779463647        -6.6347091852         0.0000000000         0.0000000000         0.0000000000         0.0000000000        23.4047937559    12 
  123     1         3.8757750000        17.4359054854        12.6368267832        -6.6347091852        -0.0000000000         0.0000000000         0.0000000000         0.0000000000        23.4047937559    12 
  124     1         1.2919250000        16.6939520605        14.3502948215        -6.6347091852        -0.0000000000         0.0000000000         0.0000000000         0.0000000000        23.4047937559    12 
  125     1         3.8757750000        20.0327424726        10.7091752400        -6.6347091851        -0.0000000000         0.0000000000         0.0000000000         0.0000000000        23.4047937544    12 
  126     1         1.2919250000        19.2907890477        12.4226432784        -6.6347091852         0.0000000000         0.0000000000         0.0000000000         0.0000000000        23.4047937550    14 
  127     1         3.8757750000        12.6132082235        19.7048824415        -6.6347091852        -0.0000000000         0.0000000000         0.0000000000         0.0000000000        23.4047937548    14 
  128     1         3.8757750000        15.2100452107        17.7772308983        -6.6347091852         0.0000000000        -0.0000000000         0.0000000000         0.0000000000        23.4047937559    12 
  129     1         1.2919250000        14.4680917858        19.4906989367        -6.6347091852         0.0000000000         0.0000000000         0.0000000000         0.0000000000        23.4047937555    12 
  130     1         3.8757750000        17.8068821979        15.8495793551        -6.6347091852         0.0000000000         0.0000000000        -0.0000000000         0.0000000000        23.4047937559    12 
  131     1         1.2919250000        17.0649287729        17.5630473935        -6.6347091852         0.0000000000         0.0000000000         0.0000000000         0.0000000000        23.4047937559    12 
  132     1         3.8757750000        20.4037191850        13.9219278119        -6.6347091851         0.0000000000         0.0000000000         0.0000000000         0.0000000000        23.4047937543    12 
  133     1         1.2919250000        19.6617657601        15.6353958503        -6.6347091852         0.0000000000         0.0000000000         0.0000000000         0.0000000000        23.4047937555    14 
  134     1         3.8757750000        15.5810219231        20.9899834703        -6.6347091852         0.0000000000        -0.0000000000         0.0000000000         0.0000000000        23.4047937555    14 
  135     1         1.2919250000        14.8390684982        22.7034515087        -6.6347091851         0.0000000000         0.0000000000         0.0000000000         0.0000000000        23.4047937543    12 
  136     1         3.8757750000        18.1778589103        19.0623319271        -6.6347091852         0.0000000000         0.0000000000         0.0000000000         0.0000000000        23.4047937559    12 
  137     1         1.2919250000        17.4359054854        20.7757999655        -6.6347091852        -0.0000000000         0.0000000000         0.0000000000         0.0000000000        23.4047937559    12 
  138     1         3.8757750000        20.7746958975        17.1346803839        -6.6347091852         0.0000000000         0.0000000000         0.0000000000         0.0000000000        23.4047937555    12 
  139     1         1.2919250000        20.0327424726        18.8481484223        -6.6347091852         0.0000000000         0.0000000000         0.0000000000         0.0000000000        23.4047937559    12 
  140     1         1.2919250000        22.6295794598        16.9204968791        -6.6347091852         0.0000000000         0.0000000000         0.0000000000         0.0000000000        23.4047937548    14 
  141     1         3.8757750000        15.9519986356        24.2027360423        -6.6347091852         0.0000000000        -0.0000000000         0.0000000000         0.0000000000        23.4047937550    14 
  142     1         3.8757750000        18.5488356228        22.2750844991        -6.6347091852        -0.0000000000         0.0000000000         0.0000000000         0.0000000000        23.4047937559    12 