ITEM: TIMESTEP
1
ITEM: NUMBER OF ATOMS
152
ITEM: BOX BOUNDS xy xz yz pp pp pp
0.0000000000000000e+000 5.1677000000000080e+000 2.0000000000000002e-015
0.0000000000000000e+000 4.2291345219609802e+001 5.9999999999999997e-015
0.0000000000000000e+000 4.8833839093999998e+001 2.8194230146609801e+001
ITEM: ATOMS id type x y z c_peatom c_datom[1] c_datom[2] c_datom[3] c_datom[4] c_voratom[1] c_voratom[2] 
    1     1         1.2919250000        15.2100452108        25.9162040807        -6.6347091852        -0.0000000000         0.0000000001        -0.0000000000         0.0000000001        23.4047937552    14 
    2     1         3.8757750000        16.3229753481        27.4154886143        -6.6347091852         0.0000000000         0.0000000001        -0.0000000000         0.0000000001        23.4047937552    14 
    3     1         3.8757750000        18.9198123352        25.4878370711        -6.6347091852         0.0000000000        -0.0000000000        -0.0000000000         0.0000000000        23.4047937554    14 
    4     1         1.2919250000        18.1778589104        27.2013051095        -6.6347091852        -0.0000000000         0.0000000000        -0.0000000000         0.0000000001        23.4047937552    12 
    5     1         1.2919250000        20.7746958975        25.2736535663        -6.6347091852        -0.0000000000         0.0000000000         0.0000000000         0.0000000000        23.4047937558    15 
    6     1         3.8757750000        19.2907890477        28.7005896431        -6.6347091852         0.0000000000         0.0000000000        -0.0000000000         0.0000000001        23.4047937554    16 
    7     1         1.2919250000        18.5488356229        30.4140576815        -6.6347091852        -0.0000000000         0.0000000001        -0.0000000000         0.0000000001        23.4047937552    14 
    8     1         3.8757750000        21.8876260349        26.7729380999        -6.6347091852         0.0000000000        -0.0000000000         0.0000000000         0.0000000000        23.4047937558    12 
    9     1         1.2919250000        21.1456726100        28.4864061383        -6.6347091852        -0.0000000000         0.0000000000        -0.0000000000         0.0000000000        23.4047937555    14 
   10     1         3.8757750000        24.4844630220        24.8452865567        -6.6347091852         0.0000000000        -0.0000000000        -0.0000000000         0.0000000000        23.4047937553    14 
   11     1         1.2919250000        23.7425095971        26.5587545951        -6.6347091852        -0.0000000000         0.0000000000         0.0000000000         0.0000000000        23.4047937557    14 
   12     1         1.2919250000        26.3393465842        24.6311030519        -6.6347091852        -0.0000000000        -0.0000000001         0.0000000000         0.0000000001        23.4047937552    14 
   13     1         3.8757750000        19.6617657602        31.9133422151        -6.6347091852         0.0000000000         0.0000000001        -0.0000000000         0.0000000001        23.4047937553    14 
   14     1         3.8757750000        22.2586027473        29.9856906719        -6.6347091852         0.0000000000        -0.0000000000        -0.0000000000         0.0000000000        23.4047937556    14 
   15     1         1.2919250000        21.5166493225        31.6991587102        -6.6347091852        -0.0000000000         0.0000000000        -0.0000000000         0.0000000001        23.4047937552    12 
   16     1         3.8757750000        24.8554397345        28.0580391287        -6.6347091852         0.0000000000        -0.0000000000         0.0000000000         0.0000000000        23.4047937555    14 
   17     1         1.2919250000        24.1134863096        29.7715071671        -6.6347091852        -0.0000000000         0.0000000000         0.0000000000         0.0000000000        25.4416482927    14 
   18     1         3.8757750000        27.4522767216        26.1303875855        -6.6347091852         0.0000000000        -0.0000000001         0.0000000000         0.0000000001        23.4047937552    14 
   19     1         1.2919250000        26.7103232967        27.8438556239        -6.6347091852        -0.0000000000        -0.0000000000         0.0000000000         0.0000000001        23.4047937554    14 
   20     1         3.8757750000        22.6295794598        33.1984432438        -6.6347091852         0.0000000000         0.0000000000        -0.0000000000         0.0000000001        23.4047937554    14 
   21     1         1.2919250000        21.8876260350        34.9119112823        -6.6347091852        -0.0000000000         0.0000000001        -0.0000000000         0.0000000001        23.4047937552    14 
   22     1         3.8757750000        25.2264164470        31.2707917007        -6.6347091852        -0.0000000000        -0.0000000000        -0.0000000000         0.0000000000        23.4047937557    12 
   23     1         1.2919250000        24.4844630221        32.9842597391        -6.6347091852         0.0000000000         0.0000000000        -0.0000000000         0.0000000000        23.4047937555    14 
   24     1         3.8757750000        27.8232534341        29.3431401575        -6.6347091852         0.0000000000        -0.0000000000         0.0000000000         0.0000000001        23.4047937552    12 
   25     1         1.2919250000        27.0813000092        31.0566081959        -6.6347091852         0.0000000000         0.0000000000         0.0000000000         0.0000000000        23.4047937556    14 
   26     1         1.2919250000        29.6781369963        29.1289566527        -6.6347091852        -0.0000000000        -0.0000000001         0.0000000000         0.0000000001        23.4047937553    14 
   27     1         3.8757750000        23.0005561723        36.4111958159        -6.6347091852         0.0000000000         0.0000000001        -0.0000000000         0.0000000001        23.4047937552    14 
   28     1         1.2919250000        22.2586027475        38.1246638543        -6.6347091852        -0.0000000000         0.0000000001        -0.0000000000         0.0000000001        23.4047937552    14 
   29     1         3.8757750000        25.5973931594        34.4835442727        -6.6347091852        -0.0000000000        -0.0000000000        -0.0000000000         0.0000000000        23.4047937557    14 
   30     1         1.2919250000        24.8554397345        36.1970123111        -6.6347091852        -0.0000000000         0.0000000000         0.0000000000         0.0000000000        23.4047937553    14 
   31     1         3.8757750000        28.1942301466        32.5558927295        -6.6347091852         0.0000000000        -0.0000000000         0.0000000000         0.0000000000        23.4047937555    14 
   32     1         1.2919250000        27.4522767217        34.2693607679        -6.6347091852         0.0000000000         0.0000000000        -0.0000000000         0.0000000000        23.4047937558    13 
   33     1         3.8757750000        30.7910671337        30.6282411863        -6.6347091852         0.0000000000        -0.0000000001         0.0000000000         0.0000000001        23.4047937552    14 
   34     1         1.2919250000        30.0491137088        32.3417092247        -6.6347091852        -0.0000000000        -0.0000000000         0.0000000000         0.0000000001        23.4047937554    14 
   35     1         3.8757750000        23.3715328848        39.6239483878        -6.6347091852         0.0000000000         0.0000000001        -0.0000000000         0.0000000001        23.4047937552    14 
   36     1         3.8757750000        25.9683698719        37.6962968447        -6.6347091852         0.0000000000        -0.0000000000        -0.0000000000         0.0000000000        23.4047937554    14 
   37     1         1.2919250000        25.2264164470        39.4097648830        -6.6347091852        -0.0000000000         0.0000000000        -0.0000000000         0.0000000001        23.4047937552    13 
   38     1         3.8757750000        28.5652068591        35.7686453015        -6.6347091852         0.0000000000        -0.0000000000        -0.0000000000         0.0000000000        23.4047937558    14 
   39     1         1.2919250000        27.8232534342        37.4821133399        -6.6347091852        -0.0000000000         0.0000000000         0.0000000000         0.0000000000        23.4047937558    15 
   40     1         3.8757750000        31.1620438462        33.8409937583        -6.6347091852         0.0000000000        -0.0000000000         0.0000000000         0.0000000001        23.4047937552    14 
   41     1         1.2919250000        30.4200904213        35.5544617967        -6.6347091852        -0.0000000000         0.0000000000         0.0000000000         0.0000000000        23.4047937554    14 
   42     1         1.2919250000        33.0169274084        33.6268102535        -6.6347091852        -0.0000000000        -0.0000000001         0.0000000000         0.0000000001        23.4047937552    14 
   43     1         3.8757750000        26.3393465844        40.9090494166        -6.6347091852         0.0000000000         0.0000000000        -0.0000000000         0.0000000001        23.4047937554    14 
   44     1         1.2919250000        25.5973931595        42.6225174550        -6.6347091852        -0.0000000000         0.0000000001        -0.0000000000         0.0000000001        23.4047937551    14 
   45     1         3.8757750000        28.9361835715        38.9813978735        -6.6347091852         0.0000000000        -0.0000000000         0.0000000000         0.0000000000        23.4047937558    12 
   46     1         1.2919250000        28.1942301466        40.6948659118        -6.6347091852        -0.0000000000         0.0000000000        -0.0000000000         0.0000000000        23.4047937555    14 
   47     1         3.8757750000        31.5330205587        37.0537463303        -6.6347091852         0.0000000000        -0.0000000000        -0.0000000000         0.0000000000        23.4047937553    14 
   48     1         1.2919250000        30.7910671338        38.7672143687        -6.6347091852        -0.0000000000         0.0000000000         0.0000000000         0.0000000000        23.4047937557    14 
   49     1         3.8757750000        34.1298575458        35.1260947871        -6.6347091852         0.0000000000        -0.0000000001         0.0000000000         0.0000000001        23.4047937552    14 
   50     1         1.2919250000        33.3879041209        36.8395628255        -6.6347091852        -0.0000000000        -0.0000000001         0.0000000000         0.0000000001        23.4047937552    14 
   51     1         3.8757750000        26.7103232969        44.1218019886        -6.6347091852         0.0000000000         0.0000000001        -0.0000000000         0.0000000001        23.4047937550    14 
   52     1         3.8757750000        29.3071602840        42.1941504454        -6.6347091852         0.0000000000        -0.0000000000        -0.0000000000         0.0000000000        23.4047937555    14 
   53     1         1.2919250000        28.5652068591        43.9076184838        -6.6347091852        -0.0000000000         0.0000000000        -0.0000000000         0.0000000001        23.4047937551    12 
   54     1         3.8757750000        31.9039972712        40.2664989023        -6.6347091852         0.0000000000        -0.0000000000         0.0000000000         0.0000000000        23.4047937555    14 
   55     1         1.2919250000        31.1620438463        41.9799669406        -6.6347091852        -0.0000000000         0.0000000000         0.0000000000         0.0000000000        25.4416482927    15 
   56     1         3.8757750000        34.5008342582        38.3388473591        -6.6347091852         0.0000000000        -0.0000000001         0.0000000000         0.0000000001        23.4047937552    14 
   57     1         1.2919250000        33.7588808334        40.0523153975        -6.6347091852        -0.0000000000        -0.0000000000         0.0000000000         0.0000000001        23.4047937554    14 
   58     1         3.8757750000        29.6781369965        45.4069030174        -6.6347091852         0.0000000000         0.0000000001        -0.0000000000         0.0000000001        23.4047937549    16 
   59     1         1.2919250000        28.9361835717        47.1203710557        -6.6347091851        -0.0000000000         0.0000000001        -0.0000000001         0.0000000002        23.4047937546    14 
   60     1         3.8757750000        32.2749739836        43.4792514742        -6.6347091852         0.0000000000        -0.0000000000         0.0000000000         0.0000000000        23.4047937556    12 
   61     1         1.2919250000        31.5330205587        45.1927195126        -6.6347091852        -0.0000000000         0.0000000000        -0.0000000000         0.0000000000        23.4047937551    12 
   62     1         3.8757750000        34.8718109708        41.5515999311        -6.6347091852         0.0000000000        -0.0000000000         0.0000000000         0.0000000001        23.4047937552    12 
   63     1         1.2919250000        34.1298575459        43.2650679694        -6.6347091852        -0.0000000000         0.0000000000         0.0000000000         0.0000000000        23.4047937555    16 
   64     1         1.2919250000        36.7266945330        41.3374164263        -6.6347091852        -0.0000000000        -0.0000000001         0.0000000000         0.0000000001        23.4047937553    14 
   65     1         3.8757750000        30.0491137090        48.6196555893        -6.6347091852         0.0000000000         0.0000000001        -0.0000000001         0.0000000001        23.4047937546    12 
   66     1         3.8757750000        32.6459506961        46.6920040462        -6.6347091852         0.0000000000        -0.0000000000        -0.0000000001         0.0000000001        23.4047937552    14 
   67     1         1.2919250000        31.9039972712        48.4054720845        -6.6347091851        -0.0000000000        -0.0000000000        -0.0000000001         0.0000000001        23.4047937547    14 
   68     1         3.8757750000        35.2427876833        44.7643525030        -6.6347091852         0.0000000000        -0.0000000000        -0.0000000000         0.0000000000        23.4047937552    12 
   69     1         1.2919250000        34.5008342583        46.4778205414        -6.6347091852        -0.0000000000        -0.0000000000        -0.0000000001         0.0000000001        23.4047937553    14 
   70     1         3.8757750000        37.8396246703        42.8367009599        -6.6347091852         0.0000000000        -0.0000000001         0.0000000000         0.0000000001        23.4047937551    14 
   71     1         1.2919250000        37.0976712455        44.5501689983        -6.6347091852        -0.0000000000        -0.0000000001         0.0000000000         0.0000000001        23.4047937551    16 
   72     1         3.8757750000        35.6137643957        47.9771050749        -6.6347091852         0.0000000000         0.0000000000        -0.0000000001         0.0000000001        23.4047937552    14 
   73     1         3.8757750000        38.2106013829        46.0494535318        -6.6347091852        -0.0000000000        -0.0000000001        -0.0000000000         0.0000000001        23.4047937547    12 
   74     1         1.2919250000        37.4686479580        47.7629215701        -6.6347091852        -0.0000000000        -0.0000000000        -0.0000000001         0.0000000001        23.4047937549    14 
   75     1         1.2919250000        40.0654849451        45.8352700270        -6.6347091852        -0.0000000000        -0.0000000001        -0.0000000000         0.0000000001        23.4047937548    16 
   76     1         3.8757750000        41.1784150824        47.3345545605        -6.6347091852         0.0000000000        -0.0000000001        -0.0000000001         0.0000000001        23.4047937547    14 
   77     1         1.2919250000         1.1129301375         1.4992845337        -6.6347091852        -0.0000000000         0.0000000001         0.0000000001         0.0000000001        23.4047937547    14 
   78     1         3.8757750000         2.2258602748         2.9985690672        -6.6347091852         0.0000000000         0.0000000001         0.0000000000         0.0000000001        23.4047937548    16 
   79     1         3.8757750000         4.8226972619         1.0709175241        -6.6347091852        -0.0000000000         0.0000000000         0.0000000001         0.0000000001        23.4047937549    14 
   80     1         1.2919250000         4.0807438371         2.7843855624        -6.6347091852         0.0000000000         0.0000000001         0.0000000000         0.0000000001        23.4047937547    12 
   81     1         1.2919250000         6.6775808242         0.8567340193        -6.6347091852        -0.0000000000        -0.0000000000         0.0000000001         0.0000000001        23.4047937552    14 
   82     1         3.8757750000         5.1936739744         4.2836700960        -6.6347091852         0.0000000000         0.0000000001        -0.0000000000         0.0000000001        23.4047937551    16 
   83     1         1.2919250000         4.4517205496         5.9971381344        -6.6347091852        -0.0000000000         0.0000000001        -0.0000000000         0.0000000001        23.4047937551    14 
   84     1         3.8757750000         7.7905109616         2.3560185528        -6.6347091852         0.0000000000         0.0000000000         0.0000000001         0.0000000001        23.4047937553    14 
   85     1         1.2919250000         7.0485575367         4.0694865912        -6.6347091852        -0.0000000000         0.0000000000         0.0000000000         0.0000000000        23.4047937552    12 
   86     1         3.8757750000        10.3873479488         0.4283670097        -6.6347091851         0.0000000000         0.0000000000         0.0000000001         0.0000000001        23.4047937547    14 
   87     1         1.2919250000         9.6453945239         2.1418350480        -6.6347091852        -0.0000000000         0.0000000000         0.0000000001         0.0000000001        23.4047937552    14 
   88     1         1.2919250000        12.2422315109         0.2141835049        -6.6347091852        -0.0000000000        -0.0000000001         0.0000000001         0.0000000001        23.4047937546    12 
   89     1         3.8757750000         5.5646506869         7.4964226680        -6.6347091852         0.0000000000         0.0000000001        -0.0000000000         0.0000000001        23.4047937553    14 
   90     1         3.8757750000         8.1614876740         5.5687711248        -6.6347091852         0.0000000000        -0.0000000000        -0.0000000000         0.0000000000        23.4047937555    16 
   91     1         1.2919250000         7.4195342492         7.2822391631        -6.6347091852        -0.0000000000         0.0000000000        -0.0000000000         0.0000000001        23.4047937552    12 
   92     1         3.8757750000        10.7583246612         3.6411195816        -6.6347091852         0.0000000000        -0.0000000000         0.0000000000         0.0000000000        23.4047937551    12 
   93     1         1.2919250000        10.0163712363         5.3545876200        -6.6347091852        -0.0000000000         0.0000000000        -0.0000000000         0.0000000000        23.4047937556    12 
   94     1         3.8757750000        13.3551616483         1.7134680385        -6.6347091851         0.0000000000        -0.0000000001         0.0000000001         0.0000000002        23.4047937546    14 
   95     1         1.2919250000        12.6132082234         3.4269360768        -6.6347091852        -0.0000000000        -0.0000000001         0.0000000000         0.0000000001        23.4047937549    16 
   96     1         3.8757750000         8.5324643865         8.7815236967        -6.6347091852         0.0000000000         0.0000000000        -0.0000000000         0.0000000001        23.4047937554    14 
   97     1         1.2919250000         7.7905109617        10.4949917351        -6.6347091852        -0.0000000000         0.0000000001        -0.0000000000         0.0000000001        23.4047937552    14 
   98     1         3.8757750000        11.1293013737         6.8538721536        -6.6347091852         0.0000000000        -0.0000000000        -0.0000000000         0.0000000000        23.4047937557    14 
   99     1         1.2919250000        10.3873479488         8.5673401920        -6.6347091852        -0.0000000000         0.0000000000        -0.0000000000         0.0000000000        23.4047937555    14 
  100     1         3.8757750000        13.7261383608         4.9262206104        -6.6347091852         0.0000000000        -0.0000000000         0.0000000000         0.0000000001        23.4047937551    12 
  101     1         1.2919250000        12.9841849359         6.6396886488        -6.6347091852        -0.0000000000         0.0000000000         0.0000000000         0.0000000000        23.4047937555    14 
  102     1         1.2919250000        15.5810219230         4.7120371056        -6.6347091852        -0.0000000000        -0.0000000001         0.0000000000         0.0000000001        23.4047937550    14 
  103     1         3.8757750000         8.9034410990        11.9942762687        -6.6347091852         0.0000000000         0.0000000001        -0.0000000000         0.0000000001        23.4047937552    14 
  104     1         1.2919250000         8.1614876741        13.7077443071        -6.6347091852        -0.0000000000         0.0000000001        -0.0000000000         0.0000000001        23.4047937552    14 
  105     1         3.8757750000        11.5002780861        10.0666247256        -6.6347091852         0.0000000000        -0.0000000000        -0.0000000000         0.0000000000        23.4047937557    14 
  106     1         1.2919250000        10.7583246612        11.7800927640        -6.6347091852        -0.0000000000         0.0000000000         0.0000000000         0.0000000000        23.4047937553    14 
  107     1         3.8757750000        14.0971150733         8.1389731824        -6.6347091852         0.0000000000        -0.0000000000         0.0000000000         0.0000000000        23.4047937555    14 
  108     1         1.2919250000        13.3551616484         9.8524412208        -6.6347091852        -0.0000000000         0.0000000000        -0.0000000000         0.0000000000        23.4047937558    13 
  109     1         3.8757750000        16.6939520604         6.2113216392        -6.6347091852         0.0000000000        -0.0000000001         0.0000000000         0.0000000001        23.4047937551    14 
  110     1         1.2919250000        15.9519986355         7.9247896776        -6.6347091852        -0.0000000000        -0.0000000000         0.0000000000         0.0000000001        23.4047937554    14 
  111     1         3.8757750000         9.2744178115        15.2070288407        -6.6347091852         0.0000000000         0.0000000001        -0.0000000000         0.0000000001        23.4047937552    14 
  112     1         3.8757750000        11.8712547986        13.2793772975        -6.6347091852         0.0000000000        -0.0000000000        -0.0000000000         0.0000000000        23.4047937554    14 
  113     1         1.2919250000        11.1293013737        14.9928453359        -6.6347091852        -0.0000000000         0.0000000000        -0.0000000000         0.0000000001        23.4047937552    12 
  114     1         3.8757750000        14.4680917858        11.3517257544        -6.6347091852         0.0000000000        -0.0000000000        -0.0000000000         0.0000000000        23.4047937558    14 
  115     1         1.2919250000        13.7261383608        13.0651937928        -6.6347091852        -0.0000000000         0.0000000000         0.0000000000         0.0000000000        23.4047937558    15 
  116     1         3.8757750000        17.0649287729         9.4240742112        -6.6347091852         0.0000000000        -0.0000000000         0.0000000000         0.0000000001        23.4047937552    14 
  117     1         1.2919250000        16.3229753480        11.1375422496        -6.6347091852        -0.0000000000         0.0000000000         0.0000000000         0.0000000000        23.4047937554    14 
  118     1         1.2919250000        18.9198123351         9.2098907064        -6.6347091852        -0.0000000000        -0.0000000001         0.0000000000         0.0000000001        23.4047937552    14 
  119     1         3.8757750000        12.2422315111        16.4921298695        -6.6347091852         0.0000000000         0.0000000000        -0.0000000000         0.0000000001        23.4047937554    16 
  120     1         1.2919250000        11.5002780862        18.2055979079        -6.6347091852        -0.0000000000         0.0000000001        -0.0000000000         0.0000000001        23.4047937552    14 
  121     1         3.8757750000        14.8390684982        14.5644783263        -6.6347091852         0.0000000000        -0.0000000000         0.0000000000         0.0000000000        23.4047937558    12 
  122     1         1.2919250000        14.0971150733        16.2779463647        -6.6347091852        -0.0000000000         0.0000000000        -0.0000000000         0.0000000000        23.4047937555    14 
  123     1         3.8757750000        17.4359054854        12.6368267832        -6.6347091852         0.0000000000        -0.0000000000        -0.0000000000         0.0000000000        23.4047937553    14 
  124     1         1.2919250000        16.6939520605        14.3502948215        -6.6347091852        -0.0000000000         0.0000000000         0.0000000000         0.0000000000        23.4047937557    14 
  125     1         3.8757750000        20.0327424725        10.7091752400        -6.6347091852         0.0000000000        -0.0000000001         0.0000000000         0.0000000001        23.4047937552    14 
  126     1         1.2919250000        19.2907890476        12.4226432784        -6.6347091852        -0.0000000000        -0.0000000001         0.0000000000         0.0000000001        23.4047937552    14 
  127     1         3.8757750000        12.6132082236        19.7048824415        -6.6347091852         0.0000000000         0.0000000001        -0.0000000000         0.0000000001        23.4047937553    14 
  128     1         3.8757750000        15.2100452107        17.7772308983        -6.6347091852         0.0000000000        -0.0000000000        -0.0000000000         0.0000000000        23.4047937556    14 
  129     1         1.2919250000        14.4680917858        19.4906989367        -6.6347091852        -0.0000000000         0.0000000000        -0.0000000000         0.0000000001        23.4047937552    12 
  130     1         3.8757750000        17.8068821979        15.8495793551        -6.6347091852         0.0000000000        -0.0000000000         0.0000000000         0.0000000000        23.4047937555    14 
  131     1         1.2919250000        17.0649287729        17.5630473935        -6.6347091852         0.0000000000         0.0000000000         0.0000000000         0.0000000000        23.4047937557    13 
  132     1         3.8757750000        20.4037191849        13.9219278120        -6.6347091852         0.0000000000        -0.0000000001         0.0000000000         0.0000000001        23.4047937552    14 
  133     1         1.2919250000        19.6617657601        15.6353958504        -6.6347091852        -0.0000000000        -0.0000000000         0.0000000000         0.0000000001        23.4047937554    14 
  134     1         3.8757750000        15.5810219232        20.9899834703        -6.6347091852         0.0000000000         0.0000000000        -0.0000000000         0.0000000001        23.4047937554    14 
  135     1         1.2919250000        14.8390684983        22.7034515087        -6.6347091852        -0.0000000000         0.0000000001        -0.0000000000         0.0000000001        23.4047937552    14 
  136     1         3.8757750000        18.1778589103        19.0623319271        -6.6347091852         0.0000000000        -0.0000000000        -0.0000000000         0.0000000000        23.4047937557    12 
  137     1         1.2919250000        17.4359054854        20.7757999655        -6.6347091852        -0.0000000000         0.0000000000        -0.0000000000         0.0000000000        23.4047937555    14 
  138     1         3.8757750000        20.7746958975        17.1346803840        -6.6347091852         0.0000000000        -0.0000000000         0.0000000000         0.0000000001        23.4047937552    12 
  139     1         1.2919250000        20.0327424726        18.8481484223        -6.6347091852        -0.0000000000         0.0000000000         0.0000000000         0.0000000000        23.4047937556    14 
  140     1         1.2919250000        22.6295794597        16.9204968792        -6.6347091852        -0.0000000000        -0.0000000001         0.0000000000         0.0000000001        23.4047937553    14 
  141     1         3.8757750000        15.9519986357        24.2027360423        -6.6347091852         0.0000000000         0.0000000001        -0.0000000000         0.0000000001        23.4047937552    14 
  142     1         3.8757750000        18.5488356228        22.2750844991        -6.6347091852         0.0000000000        -0.0000000000        -0.0000000000         0.0000000000        23.4047937557    14 