Header

140 atoms
1 atom types

0.0    5.167700000 xlo xhi
0.0   14.820508055 ylo yhi
0.0   42.783121576 zlo zhi

0.000000000000002        0.000000000000010        74.102540275283431       xy xz yz

Atoms

       1    1       3.875775000000005       41.991439489327277       21.391560787784979
       2    1       1.291925000000005       41.638570249921159       23.225123141023687
       3    1       3.875775000000005       43.050047207545610       24.447498043182833
       4    1       3.875775000000005       45.167262643982284       22.002748238864548
       5    1       1.291925000000006       44.814393404576165       23.836310592103263
       6    1       1.291925000000006       46.931608841012839       21.391560787784979
       7    1       3.875775000000005       46.225870362200610       25.058685494262399
       8    1       3.875775000000005       48.343085798637276       22.613935689944121
       9    1       1.291925000000006       47.990216559231172       24.447498043182833
      10    1       1.291925000000006       50.107431995667845       22.002748238864548
      11    1       3.875775000000006       49.401693516855616       25.669872945341972
      12    1       1.291925000000006       49.048824277449505       27.503435298580683
      13    1       3.875775000000006       51.518908953292282       23.225123141023687
      14    1       1.291925000000006       51.166039713886178       25.058685494262402
      15    1       1.291925000000007       53.283255150322844       22.613935689944128
      16    1       3.875775000000006       50.460301235073949       28.725810200739833
      17    1       3.875775000000006       52.577516671510622       26.281060396421548
      18    1       1.291925000000007       52.224647432104504       28.114622749660256
      19    1       3.875775000000006       54.694732107947289       23.836310592103267
      20    1       1.291925000000007       54.341862868541185       25.669872945341979
      21    1       3.875775000000006       53.636124389728955       29.336997651819399
      22    1       3.875775000000007       55.753339826165622       26.892247847501118
      23    1       1.291925000000007       55.400470586759518       28.725810200739829
      24    1       1.291925000000007       57.517686023196177       26.281060396421545
      25    1       3.875775000000007       56.811947544383955       29.948185102898968
      26    1       1.291925000000007       56.459078304977851       31.781747456137683
      27    1       3.875775000000007       58.929162980820621       27.503435298580683
      28    1       1.291925000000007       58.576293741414510       29.336997651819395
      29    1       1.291925000000008       60.693509177851176       26.892247847501114
      30    1       3.875775000000007       57.870555262602295       33.004122358296826
      31    1       3.875775000000007       59.987770699038961       30.559372553978541
      32    1       1.291925000000008       59.634901459632843       32.392934907217246
      33    1       3.875775000000007       62.104986135475627       28.114622749660256
      34    1       1.291925000000008       61.752116896069523       29.948185102898975
      35    1       3.875775000000007       61.046378417257301       33.615309809376392
      36    1       3.875775000000008       63.163593853693968       31.170560005058107
      37    1       1.291925000000008       62.810724614287849       33.004122358296819
      38    1       1.291925000000008       64.927940050724516       30.559372553978534
      39    1       3.875775000000008       64.222201571912308       34.226497260455965
      40    1       1.291925000000008       63.869332332506190       36.060059613694676
      41    1       3.875775000000008       66.339417008348974       31.781747456137683
      42    1       1.291925000000008       65.986547768942856       33.615309809376392
      43    1       1.291925000000008       68.103763205379522       31.170560005058114
      44    1       3.875775000000008       65.280809290130634       37.282434515853822
      45    1       3.875775000000008       67.398024726567314       34.837684711535545
      46    1       1.291925000000008       67.045155487161196       36.671247064774249
      47    1       3.875775000000008       69.515240163003966       32.392934907217253
      48    1       1.291925000000009       69.162370923597848       34.226497260455957
      49    1       3.875775000000008       68.456632444785640       37.893621966933381
      50    1       3.875775000000008       70.573847881222306       35.448872162615103
      51    1       1.291925000000009       70.220978641816203       37.282434515853815
      52    1       1.291925000000009       72.338194078252869       34.837684711535530
      53    1       3.875775000000008       71.632455599440647       38.504809418012961
      54    1       1.291925000000009       71.279586360034529       40.338371771251673
      55    1       3.875775000000009       73.749671035877327       36.060059613694676
      56    1       1.291925000000009       73.396801796471209       37.893621966933388
      57    1       1.291925000000010       75.514017232907861       35.448872162615103
      58    1       3.875775000000009       72.691063317658973       41.560746673410804
      59    1       3.875775000000009       74.808278754095653       39.115996869092534
      60    1       1.291925000000010       74.455409514689535       40.949559222331231
      61    1       3.875775000000009       76.925494190532305       36.671247064774249
      62    1       1.291925000000010       76.572624951126201       38.504809418012954
      63    1       3.875775000000009       75.866886472313993       42.171934124490377
      64    1       3.875775000000009       77.984101908750645       39.727184320172107
      65    1       1.291925000000010       77.631232669344541       41.560746673410804
      66    1       1.291925000000010       79.748448105781208       39.115996869092527
      67    1       3.875775000000010       81.159925063405638       40.338371771251666
      68    1       1.291925000000010       80.807055823999548       42.171934124490392
      69    1       1.291925000000010       82.924271260436214       39.727184320172100
      70    1       3.875775000000010       84.335748218060658       40.949559222331239
      71    1       3.875775000000000        4.940169351685552        0.000000000000002
      72    1       1.291925000000000        4.587300112279450        1.833562353238712
      73    1       3.875775000000000        5.998777069903893        3.055937255397857
      74    1       3.875775000000000        8.115992506340566        0.611187451079571
      75    1       1.291925000000001        7.763123266934452        2.444749804318282
      76    1       1.291925000000001        9.880338703371120       -0.000000000000000
      77    1       3.875775000000000        9.174600224558901        3.667124706477423
      78    1       3.875775000000000       11.291815660995567        1.222374902159141
      79    1       1.291925000000001       10.938946421589455        3.055937255397851
      80    1       1.291925000000001       13.056161858026126        0.611187451079570
      81    1       3.875775000000001       12.350423379213904        4.278312157556995
      82    1       1.291925000000001       11.997554139807789        6.111874510795706
      83    1       3.875775000000001       14.467638815650570        1.833562353238712
      84    1       1.291925000000001       14.114769576244459        3.667124706477423
      85    1       1.291925000000002       16.231985012681129        1.222374902159140
      86    1       3.875775000000001       13.409031097432239        7.334249412954851
      87    1       3.875775000000001       15.526246533868905        4.889499608636568
      88    1       1.291925000000002       15.173377294462796        6.723061961875278
      89    1       3.875775000000001       17.643461970305577        2.444749804318286
      90    1       1.291925000000002       17.290592730899466        4.278312157556998
      91    1       3.875775000000001       16.584854252087240        7.945436864034422
      92    1       3.875775000000001       18.702069688523913        5.500687059716138
      93    1       1.291925000000002       18.349200449117802        7.334249412954850
      94    1       1.291925000000002       20.466415885554468        4.889499608636565
      95    1       3.875775000000002       19.760677406742246        8.556624315113993
      96    1       1.291925000000002       19.407808167336135       10.390186668352706
      97    1       3.875775000000002       21.877892843178913        6.111874510795711
      98    1       1.291925000000002       21.525023603772802        7.945436864034421
      99    1       1.291925000000003       23.642239040209471        5.500687059716139
     100    1       3.875775000000002       20.819285124960579       11.612561570511843
     101    1       3.875775000000002       22.936500561397246        9.167811766193562
     102    1       1.291925000000003       22.583631321991142       11.001374119432274
     103    1       3.875775000000002       25.053715997833919        6.723061961875279
     104    1       1.291925000000003       24.700846758427808        8.556624315113993
     105    1       3.875775000000002       23.995108279615586       12.223749021591416
     106    1       3.875775000000003       26.112323716052252        9.778999217273132
     107    1       1.291925000000003       25.759454476646141       11.612561570511843
     108    1       1.291925000000003       27.876669913082807        9.167811766193562
     109    1       3.875775000000003       27.170931434270589       12.834936472670986
     110    1       1.291925000000003       26.818062194864474       14.668498825909701
     111    1       3.875775000000003       29.288146870707259       10.390186668352705
     112    1       1.291925000000003       28.935277631301147       12.223749021591418
     113    1       1.291925000000004       31.052493067737814        9.778999217273132
     114    1       3.875775000000003       28.229539152488925       15.890873728068843
     115    1       3.875775000000003       30.346754588925592       13.446123923750562
     116    1       1.291925000000004       29.993885349519481       15.279686276989271
     117    1       3.875775000000003       32.463970025362258       11.001374119432274
     118    1       1.291925000000004       32.111100785956147       12.834936472670988
     119    1       3.875775000000003       31.405362307143925       16.502061179148409
     120    1       3.875775000000004       33.522577743580591       14.057311374830126
     121    1       1.291925000000004       33.169708504174487       15.890873728068840
     122    1       1.291925000000004       35.286923940611153       13.446123923750557
     123    1       3.875775000000004       34.581185461798931       17.113248630227982
     124    1       1.291925000000004       34.228316222392820       18.946810983466694
     125    1       3.875775000000004       36.698400898235604       14.668498825909699
     126    1       1.291925000000004       36.345531658829486       16.502061179148409
     127    1       1.291925000000005       38.462747095266153       14.057311374830128
     128    1       3.875775000000004       35.639793180017264       20.169185885625836
     129    1       3.875775000000004       37.757008616453930       17.724436081307552
     130    1       1.291925000000005       37.404139377047827       19.557998434546267
     131    1       3.875775000000004       39.874224052890604       15.279686276989271
     132    1       1.291925000000005       39.521354813484493       17.113248630227986
     133    1       3.875775000000004       38.815616334672271       20.780373336705409
     134    1       3.875775000000004       40.932831771108937       18.335623532387125
     135    1       1.291925000000005       40.579962531702826       20.169185885625836
     136    1       1.291925000000005       42.697177968139492       17.724436081307555
     137    1       3.875775000000005       44.108654925763943       18.946810983466698
     138    1       1.291925000000005       43.755785686357825       20.780373336705409
     139    1       1.291925000000006       45.873001122794498       18.335623532387125
     140    1       3.875775000000005       47.284478080418950       19.557998434546263
