ITEM: TIMESTEP
0
ITEM: NUMBER OF ATOMS
140
ITEM: BOX BOUNDS xy xz yz pp pp pp
0.0000000000000000e+000 5.1677000000000115e+000 2.0000000000000002e-015
0.0000000000000000e+000 8.8923048330283436e+001 1.0000000000000000e-014
0.0000000000000000e+000 4.2783121575999999e+001 7.4102540275283431e+001
ITEM: ATOMS id type x y z c_peatom c_datom[1] c_datom[2] c_datom[3] c_datom[4] c_voratom[1] c_voratom[2] 
    1     1         3.8757750000        41.9914394893        21.3915607878        -6.6347091852        -0.0000000000         0.0000000000         0.0000000000         0.0000000000        23.4047937559    14 
    2     1         1.2919250000        41.6385702499        23.2251231410        -6.6347091852         0.0000000000        -0.0000000000         0.0000000000         0.0000000000        23.4047937557    12 
    3     1         3.8757750000        43.0500472075        24.4474980432        -6.6347091852        -0.0000000000        -0.0000000000         0.0000000000         0.0000000000        23.4047937558    14 
    4     1         3.8757750000        45.1672626440        22.0027482389        -6.6347091852        -0.0000000000        -0.0000000000         0.0000000000         0.0000000000        23.4047937559    12 
    5     1         1.2919250000        44.8143934046        23.8363105921        -6.6347091852         0.0000000000        -0.0000000000         0.0000000000         0.0000000000        23.4047937559    12 
    6     1         1.2919250000        46.9316088410        21.3915607878        -6.6347091852         0.0000000000         0.0000000000         0.0000000000         0.0000000000        23.4047937559    14 
    7     1         3.8757750000        46.2258703622        25.0586854943        -6.6347091852        -0.0000000000         0.0000000000         0.0000000000         0.0000000000        23.4047937559    14 
    8     1         3.8757750000        48.3430857986        22.6139356899        -6.6347091852         0.0000000000         0.0000000000         0.0000000000         0.0000000000        23.4047937559    12 
    9     1         1.2919250000        47.9902165592        24.4474980432        -6.6347091852         0.0000000000         0.0000000000         0.0000000000         0.0000000000        23.4047937559    12 
   10     1         1.2919250000        50.1074319957        22.0027482389        -6.6347091852         0.0000000000        -0.0000000000         0.0000000000         0.0000000000        23.4047937559    14 
   11     1         3.8757750000        49.4016935169        25.6698729453        -6.6347091852         0.0000000000        -0.0000000000         0.0000000000         0.0000000000        23.4047937559    14 
   12     1         1.2919250000        49.0488242774        27.5034352986        -6.6347091852         0.0000000000        -0.0000000000         0.0000000000         0.0000000000        23.4047937557    12 
   13     1         3.8757750000        51.5189089533        23.2251231410        -6.6347091852        -0.0000000000        -0.0000000000         0.0000000000         0.0000000000        23.4047937559    12 
   14     1         1.2919250000        51.1660397139        25.0586854943        -6.6347091852         0.0000000000        -0.0000000000         0.0000000000         0.0000000000        23.4047937559    12 
   15     1         1.2919250000        53.2832551503        22.6139356899        -6.6347091852         0.0000000000        -0.0000000000         0.0000000000         0.0000000000        23.4047937558    14 
   16     1         3.8757750000        50.4603012351        28.7258102007        -6.6347091852        -0.0000000000        -0.0000000000         0.0000000000         0.0000000000        23.4047937558    14 
   17     1         3.8757750000        52.5775166715        26.2810603964        -6.6347091852         0.0000000000        -0.0000000000         0.0000000000         0.0000000000        23.4047937559    12 
   18     1         1.2919250000        52.2246474321        28.1146227497        -6.6347091852         0.0000000000         0.0000000000         0.0000000000         0.0000000000        23.4047937559    12 
   19     1         3.8757750000        54.6947321079        23.8363105921        -6.6347091852         0.0000000000        -0.0000000000         0.0000000000         0.0000000000        23.4047937557    12 
   20     1         1.2919250000        54.3418628685        25.6698729453        -6.6347091852         0.0000000000        -0.0000000000         0.0000000000         0.0000000000        23.4047937559    14 
   21     1         3.8757750000        53.6361243897        29.3369976518        -6.6347091852        -0.0000000000        -0.0000000000         0.0000000000         0.0000000000        23.4047937559    14 
   22     1         3.8757750000        55.7533398262        26.8922478475        -6.6347091852         0.0000000000         0.0000000000         0.0000000000         0.0000000000        23.4047937559    12 
   23     1         1.2919250000        55.4004705868        28.7258102007        -6.6347091852        -0.0000000000        -0.0000000000         0.0000000000         0.0000000000        23.4047937559    12 
   24     1         1.2919250000        57.5176860232        26.2810603964        -6.6347091852         0.0000000000         0.0000000000         0.0000000000         0.0000000000        23.4047937559    14 
   25     1         3.8757750000        56.8119475444        29.9481851029        -6.6347091852         0.0000000000         0.0000000000         0.0000000000         0.0000000000        23.4047937559    14 
   26     1         1.2919250000        56.4590783050        31.7817474561        -6.6347091852         0.0000000000         0.0000000000         0.0000000000         0.0000000000        23.4047937557    12 
   27     1         3.8757750000        58.9291629808        27.5034352986        -6.6347091852        -0.0000000000        -0.0000000000         0.0000000000         0.0000000000        23.4047937559    12 
   28     1         1.2919250000        58.5762937414        29.3369976518        -6.6347091852         0.0000000000        -0.0000000000         0.0000000000         0.0000000000        23.4047937559    12 
   29     1         1.2919250000        60.6935091779        26.8922478475        -6.6347091852         0.0000000000        -0.0000000000         0.0000000000         0.0000000000        23.4047937558    14 
   30     1         3.8757750000        57.8705552626        33.0041223583        -6.6347091852        -0.0000000000        -0.0000000000         0.0000000000         0.0000000000        23.4047937558    14 
   31     1         3.8757750000        59.9877706990        30.5593725540        -6.6347091852        -0.0000000000        -0.0000000000         0.0000000000         0.0000000000        23.4047937559    12 
   32     1         1.2919250000        59.6349014596        32.3929349072        -6.6347091852         0.0000000000         0.0000000000         0.0000000000         0.0000000000        23.4047937559    12 
   33     1         3.8757750000        62.1049861355        28.1146227497        -6.6347091852        -0.0000000000         0.0000000000         0.0000000000         0.0000000000        23.4047937557    12 
   34     1         1.2919250000        61.7521168961        29.9481851029        -6.6347091852         0.0000000000        -0.0000000000         0.0000000000         0.0000000000        23.4047937559    14 
   35     1         3.8757750000        61.0463784173        33.6153098094        -6.6347091852         0.0000000000        -0.0000000000         0.0000000000         0.0000000000        23.4047937559    14 
   36     1         3.8757750000        63.1635938537        31.1705600051        -6.6347091852        -0.0000000000        -0.0000000000         0.0000000000         0.0000000000        23.4047937559    12 
   37     1         1.2919250000        62.8107246143        33.0041223583        -6.6347091852         0.0000000000         0.0000000000         0.0000000000         0.0000000000        23.4047937559    12 
   38     1         1.2919250000        64.9279400507        30.5593725540        -6.6347091852         0.0000000000         0.0000000000         0.0000000000         0.0000000000        23.4047937559    14 
   39     1         3.8757750000        64.2222015719        34.2264972605        -6.6347091852         0.0000000000         0.0000000000         0.0000000000         0.0000000000        23.4047937559    14 
   40     1         1.2919250000        63.8693323325        36.0600596137        -6.6347091852         0.0000000000         0.0000000000         0.0000000000         0.0000000000        23.4047937557    12 
   41     1         3.8757750000        66.3394170083        31.7817474561        -6.6347091852        -0.0000000000         0.0000000000         0.0000000000         0.0000000000        23.4047937559    12 
   42     1         1.2919250000        65.9865477689        33.6153098094        -6.6347091852         0.0000000000         0.0000000000         0.0000000000         0.0000000000        23.4047937559    12 
   43     1         1.2919250000        68.1037632054        31.1705600051        -6.6347091852         0.0000000000        -0.0000000000         0.0000000000         0.0000000000        23.4047937558    14 
   44     1         3.8757750000        65.2808092901        37.2824345159        -6.6347091852         0.0000000000         0.0000000000         0.0000000000         0.0000000000        23.4047937558    14 
   45     1         3.8757750000        67.3980247266        34.8376847115        -6.6347091852        -0.0000000000         0.0000000000         0.0000000000         0.0000000000        23.4047937559    12 
   46     1         1.2919250000        67.0451554872        36.6712470648        -6.6347091852         0.0000000000        -0.0000000000         0.0000000000         0.0000000000        23.4047937559    12 
   47     1         3.8757750000        69.5152401630        32.3929349072        -6.6347091852         0.0000000000         0.0000000000         0.0000000000         0.0000000000        23.4047937557    12 
   48     1         1.2919250000        69.1623709236        34.2264972605        -6.6347091852         0.0000000000         0.0000000000         0.0000000000         0.0000000000        23.4047937559    14 
   49     1         3.8757750000        68.4566324448        37.8936219669        -6.6347091852         0.0000000000         0.0000000000         0.0000000000         0.0000000000        23.4047937559    14 
   50     1         3.8757750000        70.5738478812        35.4488721626        -6.6347091852         0.0000000000         0.0000000000         0.0000000000         0.0000000000        23.4047937559    12 
   51     1         1.2919250000        70.2209786418        37.2824345159        -6.6347091852        -0.0000000000        -0.0000000000         0.0000000000         0.0000000000        23.4047937559    12 
   52     1         1.2919250000        72.3381940783        34.8376847115        -6.6347091852         0.0000000000         0.0000000000         0.0000000000         0.0000000000        23.4047937559    14 
   53     1         3.8757750000        71.6324555994        38.5048094180        -6.6347091852         0.0000000000         0.0000000000         0.0000000000         0.0000000000        23.4047937559    14 
   54     1         1.2919250000        71.2795863600        40.3383717713        -6.6347091851         0.0000000000        -0.0000000000         0.0000000000         0.0000000000        23.4047937569    12 
   55     1         3.8757750000        73.7496710359        36.0600596137        -6.6347091852        -0.0000000000         0.0000000000         0.0000000000         0.0000000000        23.4047937559    12 
   56     1         1.2919250000        73.3968017965        37.8936219669        -6.6347091851         0.0000000000         0.0000000000         0.0000000000         0.0000000000        23.4047937559    12 
   57     1         1.2919250000        75.5140172329        35.4488721626        -6.6347091852         0.0000000000        -0.0000000000         0.0000000000         0.0000000000        23.4047937558    14 
   58     1         3.8757750000        72.6910633177        41.5607466734        -6.6347091852        -0.0000000000        -0.0000000000         0.0000000000         0.0000000000        23.4047937580    14 
   59     1         3.8757750000        74.8082787541        39.1159968691        -6.6347091851        -0.0000000000        -0.0000000000         0.0000000000         0.0000000000        23.4047937559    12 
   60     1         1.2919250000        74.4554095147        40.9495592223        -6.6347091852         0.0000000000         0.0000000000         0.0000000000         0.0000000000        23.4047937571    12 
   61     1         3.8757750000        76.9254941905        36.6712470648        -6.6347091851        -0.0000000000        -0.0000000000         0.0000000000         0.0000000000        23.4047937557    12 
   62     1         1.2919250000        76.5726249511        38.5048094180        -6.6347091851         0.0000000000         0.0000000000         0.0000000000         0.0000000000        23.4047937559    14 
   63     1         3.8757750000        75.8668864723        42.1719341245        -6.6347091852        -0.0000000000         0.0000000000         0.0000000000         0.0000000000        23.4047937582    14 
   64     1         3.8757750000        77.9841019088        39.7271843202        -6.6347091852         0.0000000000        -0.0000000000         0.0000000000         0.0000000000        23.4047937566    12 
   65     1         1.2919250000        77.6312326693        41.5607466734        -6.6347091852         0.0000000000        -0.0000000000         0.0000000000         0.0000000000        23.4047937577    12 
   66     1         1.2919250000        79.7484481058        39.1159968691        -6.6347091851         0.0000000000        -0.0000000000         0.0000000000         0.0000000000        23.4047937559    14 
   67     1         3.8757750000        81.1599250634        40.3383717713        -6.6347091852        -0.0000000000        -0.0000000000         0.0000000000         0.0000000000        23.4047937572    12 
   68     1         1.2919250000        80.8070558240        42.1719341245        -6.6347091852         0.0000000000         0.0000000000         0.0000000000         0.0000000000        23.4047937583    14 
   69     1         1.2919250000        82.9242712604        39.7271843202        -6.6347091851         0.0000000000        -0.0000000000         0.0000000000         0.0000000000        23.4047937565    14 
   70     1         3.8757750000        84.3357482181        40.9495592223        -6.6347091852         0.0000000000        -0.0000000000         0.0000000000         0.0000000000        23.4047937579    14 
   71     1         3.8757750000         4.9401693517         0.0000000000        -6.6347091852         0.0000000000         0.0000000000         0.0000000000         0.0000000000        23.4047937582    14 
   72     1         1.2919250000         4.5873001123         1.8335623532        -6.6347091852         0.0000000000        -0.0000000000         0.0000000000         0.0000000000        23.4047937570    12 
   73     1         3.8757750000         5.9987770699         3.0559372554        -6.6347091851         0.0000000000        -0.0000000000         0.0000000000         0.0000000000        23.4047937558    14 
   74     1         3.8757750000         8.1159925063         0.6111874511        -6.6347091852        -0.0000000000         0.0000000000         0.0000000000         0.0000000000        23.4047937578    12 
   75     1         1.2919250000         7.7631232669         2.4447498043        -6.6347091852         0.0000000000         0.0000000000         0.0000000000         0.0000000000        23.4047937566    12 
   76     1         1.2919250000         9.8803387034         0.0000000000        -6.6347091852         0.0000000000         0.0000000000         0.0000000000         0.0000000000        23.4047937582    14 
   77     1         3.8757750000         9.1746002246         3.6671247065        -6.6347091851         0.0000000000         0.0000000000         0.0000000000         0.0000000000        23.4047937559    14 
   78     1         3.8757750000        11.2918156610         1.2223749022        -6.6347091852         0.0000000000         0.0000000000         0.0000000000         0.0000000000        23.4047937571    12 
   79     1         1.2919250000        10.9389464216         3.0559372554        -6.6347091851         0.0000000000         0.0000000000         0.0000000000         0.0000000000        23.4047937559    12 
   80     1         1.2919250000        13.0561618580         0.6111874511        -6.6347091852         0.0000000000         0.0000000000         0.0000000000         0.0000000000        23.4047937581    14 
   81     1         3.8757750000        12.3504233792         4.2783121576        -6.6347091851        -0.0000000000        -0.0000000000         0.0000000000         0.0000000000        23.4047937559    14 
   82     1         1.2919250000        11.9975541398         6.1118745108        -6.6347091852         0.0000000000        -0.0000000000         0.0000000000         0.0000000000        23.4047937557    12 
   83     1         3.8757750000        14.4676388157         1.8335623532        -6.6347091852        -0.0000000000         0.0000000000         0.0000000000         0.0000000000        23.4047937571    12 
   84     1         1.2919250000        14.1147695762         3.6671247065        -6.6347091852         0.0000000000         0.0000000000         0.0000000000         0.0000000000        23.4047937559    12 
   85     1         1.2919250000        16.2319850127         1.2223749022        -6.6347091852         0.0000000000         0.0000000000         0.0000000000         0.0000000000        23.4047937580    14 
   86     1         3.8757750000        13.4090310974         7.3342494130        -6.6347091852        -0.0000000000        -0.0000000000         0.0000000000         0.0000000000        23.4047937558    14 
   87     1         3.8757750000        15.5262465339         4.8894996086        -6.6347091852        -0.0000000000         0.0000000000         0.0000000000         0.0000000000        23.4047937559    12 
   88     1         1.2919250000        15.1733772945         6.7230619619        -6.6347091852         0.0000000000         0.0000000000         0.0000000000         0.0000000000        23.4047937559    12 
   89     1         3.8757750000        17.6434619703         2.4447498043        -6.6347091851        -0.0000000000         0.0000000000         0.0000000000         0.0000000000        23.4047937564    12 
   90     1         1.2919250000        17.2905927309         4.2783121576        -6.6347091852         0.0000000000         0.0000000000         0.0000000000         0.0000000000        23.4047937559    14 
   91     1         3.8757750000        16.5848542521         7.9454368640        -6.6347091852        -0.0000000000         0.0000000000         0.0000000000         0.0000000000        23.4047937559    14 
   92     1         3.8757750000        18.7020696885         5.5006870597        -6.6347091851         0.0000000000         0.0000000000         0.0000000000         0.0000000000        23.4047937559    12 
   93     1         1.2919250000        18.3492004491         7.3342494130        -6.6347091852         0.0000000000        -0.0000000000         0.0000000000         0.0000000000        23.4047937559    12 
   94     1         1.2919250000        20.4664158856         4.8894996086        -6.6347091852         0.0000000000         0.0000000000         0.0000000000         0.0000000000        23.4047937559    14 
   95     1         3.8757750000        19.7606774067         8.5566243151        -6.6347091852         0.0000000000        -0.0000000000         0.0000000000         0.0000000000        23.4047937559    14 
   96     1         1.2919250000        19.4078081673        10.3901866684        -6.6347091852         0.0000000000         0.0000000000         0.0000000000         0.0000000000        23.4047937557    12 
   97     1         3.8757750000        21.8778928432         6.1118745108        -6.6347091852        -0.0000000000         0.0000000000         0.0000000000         0.0000000000        23.4047937559    12 
   98     1         1.2919250000        21.5250236038         7.9454368640        -6.6347091852         0.0000000000         0.0000000000         0.0000000000         0.0000000000        23.4047937559    12 
   99     1         1.2919250000        23.6422390402         5.5006870597        -6.6347091852         0.0000000000        -0.0000000000         0.0000000000         0.0000000000        23.4047937558    14 
  100     1         3.8757750000        20.8192851250        11.6125615705        -6.6347091852        -0.0000000000        -0.0000000000         0.0000000000         0.0000000000        23.4047937558    14 
  101     1         3.8757750000        22.9365005614         9.1678117662        -6.6347091852         0.0000000000        -0.0000000000         0.0000000000         0.0000000000        23.4047937559    12 
  102     1         1.2919250000        22.5836313220        11.0013741194        -6.6347091852         0.0000000000        -0.0000000000         0.0000000000         0.0000000000        23.4047937559    12 
  103     1         3.8757750000        25.0537159978         6.7230619619        -6.6347091852         0.0000000000         0.0000000000         0.0000000000         0.0000000000        23.4047937557    12 
  104     1         1.2919250000        24.7008467584         8.5566243151        -6.6347091852         0.0000000000        -0.0000000000         0.0000000000         0.0000000000        23.4047937559    14 
  105     1         3.8757750000        23.9951082796        12.2237490216        -6.6347091852        -0.0000000000         0.0000000000         0.0000000000         0.0000000000        23.4047937559    14 
  106     1         3.8757750000        26.1123237161         9.7789992173        -6.6347091852         0.0000000000         0.0000000000         0.0000000000         0.0000000000        23.4047937559    12 
  107     1         1.2919250000        25.7594544766        11.6125615705        -6.6347091852         0.0000000000        -0.0000000000         0.0000000000         0.0000000000        23.4047937559    12 
  108     1         1.2919250000        27.8766699131         9.1678117662        -6.6347091852         0.0000000000         0.0000000000         0.0000000000         0.0000000000        23.4047937559    14 
  109     1         3.8757750000        27.1709314343        12.8349364727        -6.6347091852         0.0000000000        -0.0000000000         0.0000000000         0.0000000000        23.4047937559    14 
  110     1         1.2919250000        26.8180621949        14.6684988259        -6.6347091852         0.0000000000        -0.0000000000         0.0000000000         0.0000000000        23.4047937557    12 
  111     1         3.8757750000        29.2881468707        10.3901866684        -6.6347091852        -0.0000000000        -0.0000000000         0.0000000000         0.0000000000        23.4047937559    12 
  112     1         1.2919250000        28.9352776313        12.2237490216        -6.6347091852         0.0000000000        -0.0000000000         0.0000000000         0.0000000000        23.4047937559    12 
  113     1         1.2919250000        31.0524930677         9.7789992173        -6.6347091852         0.0000000000         0.0000000000         0.0000000000         0.0000000000        23.4047937558    14 
  114     1         3.8757750000        28.2295391525        15.8908737281        -6.6347091852        -0.0000000000        -0.0000000000         0.0000000000         0.0000000000        23.4047937558    14 
  115     1         3.8757750000        30.3467545889        13.4461239238        -6.6347091852        -0.0000000000         0.0000000000         0.0000000000         0.0000000000        23.4047937559    12 
  116     1         1.2919250000        29.9938853495        15.2796862770        -6.6347091852         0.0000000000        -0.0000000000         0.0000000000         0.0000000000        23.4047937559    12 
  117     1         3.8757750000        32.4639700254        11.0013741194        -6.6347091852        -0.0000000000         0.0000000000         0.0000000000         0.0000000000        23.4047937557    12 
  118     1         1.2919250000        32.1111007860        12.8349364727        -6.6347091852         0.0000000000        -0.0000000000         0.0000000000         0.0000000000        23.4047937559    14 
  119     1         3.8757750000        31.4053623071        16.5020611791        -6.6347091852         0.0000000000         0.0000000000         0.0000000000         0.0000000000        23.4047937559    14 
  120     1         3.8757750000        33.5225777436        14.0573113748        -6.6347091852         0.0000000000         0.0000000000         0.0000000000         0.0000000000        23.4047937559    12 
  121     1         1.2919250000        33.1697085042        15.8908737281        -6.6347091852         0.0000000000        -0.0000000000         0.0000000000         0.0000000000        23.4047937559    12 
  122     1         1.2919250000        35.2869239406        13.4461239238        -6.6347091852         0.0000000000        -0.0000000000         0.0000000000         0.0000000000        23.4047937559    14 
  123     1         3.8757750000        34.5811854618        17.1132486302        -6.6347091852         0.0000000000         0.0000000000         0.0000000000         0.0000000000        23.4047937559    14 
  124     1         1.2919250000        34.2283162224        18.9468109835        -6.6347091852         0.0000000000         0.0000000000         0.0000000000         0.0000000000        23.4047937557    12 
  125     1         3.8757750000        36.6984008982        14.6684988259        -6.6347091852        -0.0000000000        -0.0000000000         0.0000000000         0.0000000000        23.4047937559    12 
  126     1         1.2919250000        36.3455316588        16.5020611791        -6.6347091852         0.0000000000         0.0000000000         0.0000000000         0.0000000000        23.4047937559    12 
  127     1         1.2919250000        38.4627470953        14.0573113748        -6.6347091852         0.0000000000         0.0000000000         0.0000000000         0.0000000000        23.4047937558    14 
  128     1         3.8757750000        35.6397931800        20.1691858856        -6.6347091852         0.0000000000        -0.0000000000         0.0000000000         0.0000000000        23.4047937558    14 
  129     1         3.8757750000        37.7570086165        17.7244360813        -6.6347091852        -0.0000000000        -0.0000000000         0.0000000000         0.0000000000        23.4047937559    12 
  130     1         1.2919250000        37.4041393770        19.5579984345        -6.6347091852         0.0000000000        -0.0000000000         0.0000000000         0.0000000000        23.4047937559    12 
  131     1         3.8757750000        39.8742240529        15.2796862770        -6.6347091852         0.0000000000        -0.0000000000         0.0000000000         0.0000000000        23.4047937557    12 
  132     1         1.2919250000        39.5213548135        17.1132486302        -6.6347091852         0.0000000000        -0.0000000000         0.0000000000         0.0000000000        23.4047937559    14 
  133     1         3.8757750000        38.8156163347        20.7803733367        -6.6347091852         0.0000000000        -0.0000000000         0.0000000000         0.0000000000        23.4047937559    14 
  134     1         3.8757750000        40.9328317711        18.3356235324        -6.6347091852         0.0000000000        -0.0000000000         0.0000000000         0.0000000000        23.4047937559    12 
  135     1         1.2919250000        40.5799625317        20.1691858856        -6.6347091852         0.0000000000        -0.0000000000         0.0000000000         0.0000000000        23.4047937559    12 
  136     1         1.2919250000        42.6971779681        17.7244360813        -6.6347091852         0.0000000000         0.0000000000         0.0000000000         0.0000000000        23.4047937559    14 
  137     1         3.8757750000        44.1086549258        18.9468109835        -6.6347091852        -0.0000000000         0.0000000000         0.0000000000         0.0000000000        23.4047937559    12 
  138     1         1.2919250000        43.7557856864        20.7803733367        -6.6347091852         0.0000000000        -0.0000000000         0.0000000000         0.0000000000        23.4047937559    12 
  139     1         1.2919250000        45.8730011228        18.3356235324        -6.6347091852         0.0000000000        -0.0000000000         0.0000000000         0.0000000000        23.4047937558    14 
  140     1         3.8757750000        47.2844780804        19.5579984345        -6.6347091852        -0.0000000000        -0.0000000000         0.0000000000         0.0000000000        23.4047937557    12 
