Header

152 atoms
1 atom types

0.0    5.167700000 xlo xhi
0.0   14.097115073 ylo yhi
0.0   48.753839094 zlo zhi

0.000000000000002        0.000000000000007        33.833076175931765       xy xz yz

Atoms

       1    1       1.291925000000004       18.029468225332060       25.863505370996712
       2    1       3.875775000000003       19.142398362698234       27.357388236690870
       3    1       3.875775000000004       21.739235349885977       25.438046216530815
       4    1       1.291925000000004       20.997281924975191       27.143632061745411
       5    1       1.291925000000004       23.594118912162937       25.225574452465125
       6    1       3.875775000000004       22.110212062341372       28.641133815939853
       7    1       1.291925000000004       21.368258637430593       30.354156869168211
       8    1       3.875775000000004       24.707049049529115       26.716401642829599
       9    1       1.291925000000004       23.965095624618339       28.427078103330523
      10    1       3.875775000000005       27.303886036716857       24.801067210385142
      11    1       1.291925000000004       26.561932611806075       26.502958462126909
      12    1       1.291925000000004       29.158769598993814       24.588969367452709
      13    1       3.875775000000004       22.481188774796767       31.853364405423310
      14    1       3.875775000000004       25.078025761984510       29.925842698518228
      15    1       1.291925000000004       24.336072337073727       31.639186197144493
      16    1       3.875775000000004       27.674862749172256       27.999061244534726
      17    1       1.291925000000004       26.932909324261470       29.711695334458572
      18    1       3.875775000000004       30.271699736359999       26.076496162947670
      19    1       1.291925000000004       29.529746311449216       27.785114190650805
      20    1       3.875775000000004       25.449002474439904       33.138449384691661
      21    1       1.291925000000004       24.707049049529122       34.851912389227635
      22    1       3.875775000000005       28.045839461627647       31.210833870629099
      23    1       1.291925000000004       27.303886036716868       32.924267346347037
      24    1       3.875775000000004       30.642676448815386       29.283428222574223
      25    1       1.291925000000005       29.900723023904604       30.996660424968400
      26    1       1.291925000000005       32.497560011092354       29.069312909311222
      27    1       3.875775000000004       25.819979186895292       36.351196063042202
      28    1       1.291925000000006       39.175140835289405       38.064662960716923
      29    1       3.875775000000004       28.416816174083039       34.423545971548819
      30    1       1.291925000000005       27.674862749172259       36.137012617280938
      31    1       3.875775000000005       31.013653161270774       32.495904403543157
      32    1       1.291925000000005       30.271699736359999       34.209362872505018
      33    1       3.875775000000004       33.610490148458524       30.568321288902649
      34    1       1.291925000000006       32.868536723547749       32.281723686085769
      35    1       3.875775000000006       40.288070972655582       39.563944386453784
      36    1       3.875775000000004       28.787792886538433       37.636296262448539
      37    1       1.291925000000005       28.045839461627647       39.349761653060980
      38    1       3.875775000000005       31.384629873726173       35.708645771429197
      39    1       1.291925000000006       30.642676448815390       37.422112869898193
      40    1       3.875775000000006       33.981466860913919       33.780996988266402
      41    1       1.291925000000006       33.239513436003136       35.494462378878843
      42    1       1.291925000000005       35.836350423190879       33.566814254873599
      43    1       3.875775000000004       29.158769598993818       40.849034955241613
      44    1       1.291925000000007       42.513931247387937       42.562437352424737
      45    1       3.875775000000006       31.755606586181564       38.921395768822364
      46    1       1.291925000000006       31.013653161270778       40.634854237784225
      47    1       3.875775000000005       34.352443573369314       36.993746024046445
      48    1       1.291925000000006       33.610490148458524       38.707212669778571
      49    1       3.875775000000007       36.949280560557050       35.066095680610466
      50    1       1.291925000000006       36.207327135646260       36.779562578285180
      51    1       3.875775000000007       43.626861384754108       44.061445732016175
      52    1       3.875775000000006       32.126583298636959       42.134098216358993
      53    1       1.291925000000006       31.384629873726176       43.847330418753160
      54    1       3.875775000000006       34.723420285824709       40.206491294980360
      55    1       1.291925000000006       33.981466860913912       41.919924770698287
      56    1       3.875775000000007       37.320257273012452       38.278846252099747
      57    1       1.291925000000006       36.578303848101655       39.992309256635721
      58    1       3.875775000000007       32.497560011092354       45.345644450676588
      59    1       1.291925000000008       45.852721659486463       47.054262478379719
      60    1       3.875775000000006       35.094396998280097       43.419063306868821
      61    1       1.291925000000006       34.352443573369314       45.131697396792667
      62    1       3.875775000000007       37.691233985467846       41.491572444182893
      63    1       1.291925000000006       36.949280560557057       43.204915942809166
      64    1       1.291925000000007       39.546117547744807       41.277394235904090
      65    1       3.875775000000008       46.965651796852640       48.541789273874684
      66    1       3.875775000000006       35.465373710735484       46.627800179200484
      67    1       1.291925000000006       34.723420285824709       48.329691430942248
      68    1       3.875775000000007       38.062210697923234       44.703680537996874
      69    1       1.291925000000006       37.320257273012452       46.414356998497787
      70    1       3.875775000000006       40.659047685110970       42.776601772159175
      71    1       1.291925000000007       39.917094260200194       44.489624825387544
      72    1       3.875775000000006       38.433187410378629       47.905184188862272
      73    1       3.875775000000006       41.030024397566365       45.987126579581975
      74    1       1.291925000000007       40.288070972655582       47.692712424796575
      75    1       1.291925000000007       42.884907959843332       45.773370404636516
      76    1       3.875775000000007       43.997838097209510       47.267253270330677
      77    1       3.875775000000000        1.854883562276960        0.212049820343575
      78    1       1.291925000000000        3.709767124553922        0.424147663276011
      79    1       3.875775000000000        4.451720549464711        2.126038915017779
      80    1       1.291925000000000        3.338790412098529        3.622141697425590
      81    1       3.875775000000001        7.419534249107843        0.848654905356002
      82    1       1.291925000000001        6.306604111741666        2.339482095720471
      83    1       1.291925000000001        9.274417811384804        1.061126669421683
      84    1       3.875775000000000        4.080743837009320        5.334775787349442
      85    1       3.875775000000001        7.048557536652452        4.050158556221391
      86    1       1.291925000000001        5.935627399286274        5.548923151409097
      87    1       3.875775000000000       10.016371236295589        2.766712514636288
      88    1       1.291925000000001        8.903441098929406        4.264214268830722
      89    1       3.875775000000000       12.984184935938723        1.486585823887584
      90    1       1.291925000000001       11.871254798572547        2.980468689581743
      91    1       1.291925000000001       14.839068498215678        1.699576615838539
      92    1       3.875775000000000        6.677580824197060        7.262266650035370
      93    1       1.291925000000002       19.661765760135772        8.761529837582529
      94    1       3.875775000000000        9.645394523840196        5.977237322059083
      95    1       1.291925000000001        8.532464386474020        7.476444858314182
      96    1       3.875775000000001       12.613208223483330        4.692393362202091
      97    1       1.291925000000002       11.500278086117158        6.191401741793523
      98    1       3.875775000000001       15.581021923126471        3.408194643541672
      99    1       1.291925000000002       14.468091785760288        4.906508675465092
     100    1       3.875775000000002       20.403719185046558       10.474992842118510
     101    1       3.875775000000000        9.274417811384804        9.189894707764473
     102    1       1.291925000000001        8.161487674018629       10.689176133501334
     103    1       3.875775000000001       12.242231511027937        7.904804138976639
     104    1       1.291925000000002       11.129301373661766        9.404077441157279
     105    1       3.875775000000001       15.210045210671076        6.619740877859267
     106    1       1.291925000000001       14.097115073304902        8.118984856434027
     107    1       1.291925000000002       17.064928772948036        6.833914323519964
     108    1       3.875775000000002        8.903441098929415       12.402643031176058
     109    1       3.875775000000001       11.871254798572551       11.117542831769715
     110    1       1.291925000000002       10.758324661206375       12.616826476937325
     111    1       3.875775000000001       14.839068498215687        9.832443325395889
     112    1       1.291925000000002       13.726138360849511       11.331726224320068
     113    1       3.875775000000002       17.806882197858823        8.547347799237901
     114    1       1.291925000000002       16.693952060492645       10.046626424439692
     115    1       3.875775000000002       11.500278086117154       14.330293122669438
     116    1       1.291925000000004       24.484463022055870       15.829571747871222
     117    1       3.875775000000001       14.468091785760295       13.045193322789062
     118    1       1.291925000000002       13.355161648394116       14.544476221713236
     119    1       3.875775000000003       17.435905485403431       11.760093070171807
     120    1       1.291925000000003       16.322975348037257       13.259376715339416
     121    1       1.291925000000002       19.290789047680384       11.974276515933070
     122    1       3.875775000000004       25.226416446966660       17.543005223589162
     123    1       3.875775000000002       14.097115073304900       16.257934690675096
     124    1       1.291925000000002       12.984184935938726       17.757178669249861
     125    1       3.875775000000003       17.064928772948040       14.972842105951848
     126    1       1.291925000000003       15.951998635581864       16.472115408132485
     127    1       3.875775000000002       20.032742472591170       13.687743413607794
     128    1       1.291925000000003       18.919812335225000       15.187024839344653
     129    1       1.291925000000002       21.887626034868138       13.901926704990617
     130    1       3.875775000000002       13.726138360849511       19.470410871644031
     131    1       1.291925000000004       26.710323296788228       20.968724903567455
     132    1       3.875775000000002       16.693952060492649       18.185517805315609
     133    1       1.291925000000003       15.581021923126471       19.684526184907035
     134    1       3.875775000000002       19.661765760135783       16.900474688794954
     135    1       1.291925000000003       18.548835622769605       18.399682225050046
     136    1       3.875775000000002       22.629579459778920       15.615389709526598
     137    1       1.291925000000003       21.516649322412750       17.114652897073757
     138    1       3.875775000000004       27.452276721699011       22.677342931270587
     139    1       3.875775000000003       16.322975348037257       21.396450857527384
     140    1       1.291925000000004       29.307160283975971       22.890333723221538
     141    1       3.875775000000002       19.290789047680395       20.112705278278405
     142    1       1.291925000000003       18.177858910314217       21.610207032472839
     143    1       3.875775000000003       22.258602747323522       18.827996395700030
     144    1       1.291925000000004       21.145672609957355       20.326760990887738
     145    1       1.291925000000004       24.113486309600489       19.042143759759689
     146    1       3.875775000000003       18.919812335225000       23.315792877687443
     147    1       3.875775000000004       21.887626034868138       22.037437451388655
     148    1       1.291925000000003       20.774695897501960       23.528264641753132
     149    1       3.875775000000003       24.855439734511272       20.754777849683538
     150    1       1.291925000000004       23.742509597145098       22.250880632091352
     151    1       3.875775000000004       24.484463022055888       23.952771883833115
     152    1       1.291925000000004       26.339346584332841       24.164869726765549
