ITEM: TIMESTEP
68
ITEM: NUMBER OF ATOMS
152
ITEM: BOX BOUNDS xy xz yz pp pp pp
0.0000000000000000e+000 5.1677000000000088e+000 2.0000000000000002e-015
0.0000000000000000e+000 4.7930191248931763e+001 7.0000000000000001e-015
0.0000000000000000e+000 4.8753839094000000e+001 3.3833076175931765e+001
ITEM: ATOMS id type x y z c_peatom c_datom[1] c_datom[2] c_datom[3] c_datom[4] c_voratom[1] c_voratom[2] 
    1     1         1.2919250000        18.1511172968        25.5605215374        -6.5937583427        -0.0000000000         0.1216490714        -0.3029838335         0.3264930320        24.8565609942    15 
    2     1         3.8757750000        19.1271353054        27.1496929992        -6.6052798441         0.0000000000        -0.0152630573        -0.2076952375         0.2082553063        23.6830450953    12 
    3     1         3.8757750000        21.7210983926        25.3380731261        -6.6238467573        -0.0000000000        -0.0181369573        -0.0999730904         0.1016049606        23.7076663551    14 
    4     1         1.2919250000        20.9898154374        27.0560605307        -6.6010333921        -0.0000000000        -0.0074664875        -0.0875715311         0.0878892570        23.3607125507    12 
    5     1         1.2919250000        23.5963283751        25.3371031423        -6.6301048418        -0.0000000000         0.0022094629         0.1115286899         0.1115505733        23.0940737528    16 
    6     1         3.8757750000        22.0653759560        28.5951545531        -6.6474966890        -0.0000000000        -0.0448361063        -0.0459792628         0.0642212507        23.5173016693    16 
    7     1         1.2919250000        21.3535373233        30.3252931797        -6.6154911930        -0.0000000000        -0.0147213141        -0.0288636894         0.0324010749        23.2879980938    12 
    8     1         3.8757750000        24.6918406314        26.8615817397        -6.6235767918        -0.0000000000        -0.0152084181         0.1451800968         0.1459745063        23.0714192982    14 
    9     1         1.2919250000        23.9274222789        28.5207858726        -6.6064773503        -0.0000000000        -0.0376733457         0.0937077693         0.1009971634        23.0290771615    14 
   10     1         3.8757750000        27.4137326002        25.2138842420        -6.4810829108        -0.0000000000         0.1098465635         0.4128170316         0.4271816582        22.5400276811    11 
   11     1         1.2919250000        26.5563737627        26.7797519822        -6.5480922912         0.0000000000        -0.0055588491         0.2767935201         0.2768493337        22.4834834302    14 
   12     1         1.2919250000        29.2333802001        25.0900808866        -6.2256851186         0.0000000000         0.0746106011         0.5011115191         0.5066354670        22.6429067911    15 
   13     1         3.8757750000        22.4715198394        31.8259092239        -6.6473523487         0.0000000000        -0.0096689354        -0.0274551815         0.0291079938        23.4821555802    16 
   14     1         3.8757750000        25.0837502680        29.9853782738        -6.6480954966        -0.0000000000         0.0057245060         0.0595355753         0.0598101554        23.3367006686    14 
   15     1         1.2919250000        24.3296432217        31.6875587524        -6.6194840343        -0.0000000000        -0.0064291153         0.0483725553         0.0487979265        23.2309839905    14 
   16     1         3.8757750000        27.7602393568        28.1922981023        -6.5969941332         0.0000000000         0.0853766076         0.1932368578         0.2112573036        22.9597423041    16 
   17     1         1.2919250000        26.9523646991        29.8358927539        -6.6131806346         0.0000000000         0.0194553749         0.1241974194         0.1257120146        23.0063066159    14 
   18     1         3.8757750000        30.4032555935        25.9614383985        -6.5060826713         0.0000000000         0.1315558571        -0.1150577645         0.1747719449        24.8972333353    17 
   19     1         1.2919250000        29.6344261458        27.9348050464        -6.5133148138        -0.0000000000         0.1046798343         0.1496908558         0.1826614902        22.9355032657    12 
   20     1         3.8757750000        25.4592032023        33.1630254679        -6.6426956529         0.0000000000         0.0102007278         0.0245760832         0.0266089968        23.3965815499    14 
   21     1         1.2919250000        24.7081824094        34.8779197851        -6.6309960382         0.0000000000         0.0011333599         0.0260073959         0.0260320792        23.3480122502    14 
   22     1         3.8757750000        28.0967924604        31.2850660276        -6.6360258796        -0.0000000000         0.0509529988         0.0742321570         0.0900367771        23.1925196385    14 
   23     1         1.2919250000        27.3205495715        32.9792666866        -6.6304850122        -0.0000000000         0.0166635348         0.0549993402         0.0574682592        23.2815161219    14 
   24     1         3.8757750000        30.7139168265        29.2526918109        -6.5741921728         0.0000000000         0.0712403777        -0.0307364116         0.0775881332        23.1576475895    14 
   25     1         1.2919250000        29.9544551902        31.0238958417        -6.6471128381        -0.0000000000         0.0537321663         0.0272354167         0.0602404649        23.2913903473    14 
   26     1         1.2919250000        32.5417086097        28.9376721639        -6.6252361363        -0.0000000000         0.0441485986        -0.1316407454         0.1388466226        23.6337191123    16 
   27     1         3.8757750000        25.8251946815        36.3658594119        -6.6356254330         0.0000000000         0.0052154946         0.0146633489         0.0155632639        23.3860410851    14 
   28     1         1.2919250000        39.1758641268        38.0853080411        -6.6386118078         0.0000000000         0.0007232915         0.0206450804         0.0206577466        23.4178263942    14 
   29     1         3.8757750000        28.4371463441        34.4622308304        -6.6343043587         0.0000000000         0.0203301700         0.0386848589         0.0437016489        23.3321242742    14 
   30     1         1.2919250000        27.6800089639        36.1699524893        -6.6343707409        -0.0000000000         0.0051462148         0.0329398721         0.0333394466        23.3721964409    14 
   31     1         3.8757750000        31.0454860408        32.4921463470        -6.6160265225         0.0000000000         0.0318328796        -0.0037580566         0.0320539422        23.2914902460    14 
   32     1         1.2919250000        30.2885540742        34.2121057294        -6.6421046166        -0.0000000000         0.0168543379         0.0027428569         0.0170760642        23.3754189147    14 
   33     1         3.8757750000        33.6098845631        30.4889973192        -6.6255324837         0.0000000000        -0.0006055854        -0.0793239698         0.0793262813        23.5046267140    12 
   34     1         1.2919250000        32.8834196967        32.2258450127        -6.6336430208        -0.0000000000         0.0148829732        -0.0558786734         0.0578267155        23.4571292506    16 
   35     1         3.8757750000        40.2920343992        39.5787634523        -6.6290538052         0.0000000000         0.0039634265         0.0148190659         0.0153399303        23.3575489364    14 
   36     1         3.8757750000        28.7890929619        37.6699697581        -6.6346794580         0.0000000000         0.0013000754         0.0336734957         0.0336985831        23.3988887006    14 
   37     1         1.2919250000        28.0428796466        39.3882226720        -6.6341344864        -0.0000000000        -0.0029598150         0.0384610190         0.0385747390        23.4308083702    12 
   38     1         3.8757750000        31.3913303361        35.7098391441        -6.6315400127         0.0000000000         0.0067004624         0.0011933727         0.0068059044        23.3628229854    14 
   39     1         1.2919250000        30.6359759865        37.4209194971        -6.6315400127        -0.0000000000        -0.0067004623        -0.0011933728         0.0068059044        23.3628229854    14 
   40     1         3.8757750000        33.9844266760        33.7425359692        -6.6341344864        -0.0000000000         0.0029598151        -0.0384610191         0.0385747391        23.4308083702    12 
   41     1         1.2919250000        33.2382133607        35.4607888831        -6.6346794580        -0.0000000000        -0.0013000753        -0.0336734958         0.0336985833        23.3988887006    14 
   42     1         1.2919250000        35.8323869964        33.5519951889        -6.6290538052         0.0000000000        -0.0039634268        -0.0148190660         0.0153399305        23.3575489364    14 
   43     1         3.8757750000        29.1438866259        40.9049136285        -6.6336430208         0.0000000000        -0.0148829731         0.0558786733         0.0578267154        23.4571292506    16 
   44     1         1.2919250000        42.5145368325        42.6417613221        -6.6255324837        -0.0000000000         0.0006055851         0.0793239696         0.0793262812        23.5046267140    12 
   45     1         3.8757750000        31.7387522484        38.9186529118        -6.6421046166        -0.0000000000        -0.0168543378        -0.0027428570         0.0170760642        23.3754189147    14 
   46     1         1.2919250000        30.9818202818        40.6386122942        -6.6160265225        -0.0000000000        -0.0318328795         0.0037580564         0.0320539421        23.2914902460    14 
   47     1         3.8757750000        34.3472973587        36.9608061519        -6.6343707409         0.0000000000        -0.0051462147        -0.0329398722         0.0333394467        23.3721964409    14 
   48     1         1.2919250000        33.5901599785        38.6685278108        -6.6343043587        -0.0000000000        -0.0203301700        -0.0386848590         0.0437016490        23.3321242742    14 
   49     1         3.8757750000        36.9485572688        35.0454506001        -6.6386118078        -0.0000000000        -0.0007232917        -0.0206450805         0.0206577467        23.4178263942    14 
   50     1         1.2919250000        36.2021116411        36.7648992293        -6.6356254330        -0.0000000000        -0.0052154945        -0.0146633490         0.0155632640        23.3860410851    14 
   51     1         3.8757750000        43.5827127859        44.1930864773        -6.6252361363         0.0000000000        -0.0441485988         0.1316407453         0.1388466226        23.6337191123    16 
   52     1         3.8757750000        32.0728511324        42.1068627995        -6.6471128381        -0.0000000000        -0.0537321662        -0.0272354168         0.0602404649        23.2913903473    14 
   53     1         1.2919250000        31.3133894961        43.8780668303        -6.5741921728        -0.0000000000        -0.0712403776         0.0307364115         0.0775881331        23.1576475895    14 
   54     1         3.8757750000        34.7067567511        40.1514919546        -6.6304850122         0.0000000000        -0.0166635348        -0.0549993404         0.0574682593        23.2815161219    14 
   55     1         1.2919250000        33.9305138622        41.8456926136        -6.6360258796        -0.0000000000        -0.0509529988        -0.0742321571         0.0900367771        23.1925196385    14 
   56     1         3.8757750000        37.3191239132        38.2528388561        -6.6309960382        -0.0000000000        -0.0011333599        -0.0260073960         0.0260320793        23.3480122502    14 
   57     1         1.2919250000        36.5681031203        39.9677331734        -6.6426956529        -0.0000000000        -0.0102007278        -0.0245760833         0.0266089969        23.3965815499    14 
   58     1         3.8757750000        32.3928801768        45.1959535948        -6.5133148138        -0.0000000000        -0.1046798343        -0.1496908559         0.1826614903        22.9355032657    12 
   59     1         1.2919250000        45.7211658021        47.1693202427        -6.5060826713        -0.0000000000        -0.1315558574         0.1150577643         0.1747719450        24.8972333353    17 
   60     1         3.8757750000        35.0749416235        43.2948658873        -6.6131806346         0.0000000000        -0.0194553748        -0.1241974195         0.1257120147        23.0063066159    14 
   61     1         1.2919250000        34.2670669658        44.9384605389        -6.5969941332        -0.0000000000        -0.0853766075        -0.1932368579         0.2112573037        22.9597423041    16 
   62     1         3.8757750000        37.6976631008        41.4431998888        -6.6194840343        -0.0000000000         0.0064291154        -0.0483725554         0.0487979266        23.2309839905    14 
   63     1         1.2919250000        36.9435560546        43.1453803674        -6.6480954966         0.0000000000        -0.0057245059        -0.0595355754         0.0598101555        23.3367006686    14 
   64     1         1.2919250000        39.5557864832        41.3048494173        -6.6473523487        -0.0000000000         0.0096689354         0.0274551814         0.0291079937        23.4821555802    16 
   65     1         3.8757750000        46.8910411955        48.0406777546        -6.2256851186         0.0000000000        -0.0746106014        -0.5011115192         0.5066354671        22.6429067911    15 
   66     1         3.8757750000        35.4709325599        46.3510066590        -6.5480922912         0.0000000000         0.0055588492        -0.2767935202         0.2768493338        22.4834834302    14 
   67     1         1.2919250000        34.6135737224        47.9168743992        -6.4810829108        -0.0000000000        -0.1098465634        -0.4128170318         0.4271816583        22.5400276811    11 
   68     1         3.8757750000        38.0998840437        44.6099727686        -6.6064773503        -0.0000000000         0.0376733458        -0.0937077694         0.1009971635        23.0290771615    14 
   69     1         1.2919250000        37.3354656912        46.2691769016        -6.6235767918         0.0000000000         0.0152084182        -0.1451800969         0.1459745064        23.0714192982    14 
   70     1         3.8757750000        40.6737689993        42.8054654615        -6.6154911930         0.0000000000         0.0147213142         0.0288636893         0.0324010749        23.2879980938    12 
   71     1         1.2919250000        39.9619303666        44.5356040881        -6.6474966890        -0.0000000000         0.0448361064         0.0459792627         0.0642212506        23.5173016693    16 
   72     1         3.8757750000        38.4309779475        47.7936554989        -6.6301048418         0.0000000000        -0.0022094629        -0.1115286900         0.1115505734        23.0940737528    16 
   73     1         3.8757750000        41.0374908852        46.0746981105        -6.6010333921         0.0000000000         0.0074664876         0.0875715310         0.0878892569        23.3607125507    12 
   74     1         1.2919250000        40.3062079300        47.7926855151        -6.6238467573         0.0000000000         0.0181369574         0.0999730903         0.1016049605        23.7076663551    14 
   75     1         1.2919250000        42.9001710172        45.9810656420        -6.6052798441         0.0000000000         0.0152630574         0.2076952374         0.2082553062        23.6830450953    12 
   76     1         3.8757750000        43.8761890258        47.5702371038        -6.5937583427         0.0000000000        -0.1216490714         0.3029838334         0.3264930319        24.8565609942    15 
   77     1         3.8757750000         1.8686546113         0.6369762634        -6.5046717825        -0.0000000000         0.0137710491         0.4249264430         0.4251495311        22.1510693235    16 
   78     1         1.2919250000         3.6800897912         0.6370382404        -6.6080769439        -0.0000000000        -0.0296773333         0.2128905771         0.2149491613        22.7647911753    12 
   79     1         3.8757750000         4.5689146844         2.2486163875        -6.6247490998        -0.0000000000         0.1171941350         0.1225774725         0.1695868569        23.0820110571    14 
   80     1         1.2919250000         3.4443804050         3.7538484228        -6.6219772956         0.0000000000         0.1055899930         0.1317067254         0.1688073106        23.0923993426    14 
   81     1         3.8757750000         7.4292555098         0.6519822773        -6.6387629033         0.0000000000         0.0097212607        -0.1966726280         0.1969127358        23.9795225553    12 
   82     1         1.2919250000         6.4452317669         2.2471840530        -6.6198825212        -0.0000000000         0.1386276551        -0.0922980428         0.1665429538        23.7125954873    16 
   83     1         1.2919250000         9.4251573943         0.6415959022        -6.6558315123        -0.0000000000         0.1507395829        -0.4195307673         0.4457897335        26.0677412205    16 
   84     1         3.8757750000         4.1870711147         5.4241194632        -6.6026558994        -0.0000000000         0.1063272777         0.0893436759         0.1388804608        23.0274747029    14 
   85     1         3.8757750000         7.1465685584         3.9800766669        -6.5952757685        -0.0000000000         0.0980110218        -0.0700818893         0.1204891348        23.3332422938    12 
   86     1         1.2919250000         6.0504003693         5.5022122786        -6.6479024878        -0.0000000000         0.1147729700        -0.0467108728         0.1239142457        23.5370521930    16 
   87     1         3.8757750000        10.0140720472         2.5042108060        -6.5941270122         0.0000000000        -0.0022991891        -0.2625017087         0.2625117775        24.7114385715    14 
   88     1         1.2919250000         9.0062579645         4.0668757625        -6.6026340160        -0.0000000000         0.1028168656        -0.1973385063         0.2225169520        23.6944604582    14 
   89     1         3.8757750000        13.0255073539         1.9780347948        -6.2409891239         0.0000000000         0.0413224180         0.4914489709         0.4931831639        22.8496101513    16 
   90     1         1.2919250000        11.8475107369         2.8659318283        -6.5090893374        -0.0000000000        -0.0237440617        -0.1145368613         0.1169721037        24.7338924525    12 
   91     1         1.2919250000        14.8441487797         2.0933523256        -6.4867771247        -0.0000000000         0.0050802815         0.3937757098         0.3938084799        22.6544638392    14 
   92     1         3.8757750000         6.7376876979         7.2475436374        -6.6132472475         0.0000000000         0.0601068737        -0.0147230126         0.0618837892        23.2846351919    12 
   93     1         1.2919250000        19.7070653234         8.7387863297        -6.6485928077        -0.0000000000         0.0452995633        -0.0227435079         0.0506884364        23.5153981311    16 
   94     1         3.8757750000         9.6594682377         5.8721618692        -6.6228115077         0.0000000000         0.0140737139        -0.1050754529         0.1060137737        23.5721349545    14 
   95     1         1.2919250000         8.5774549208         7.4064386248        -6.6250529055        -0.0000000000         0.0449905343        -0.0700062336         0.0832167105        23.4971201395    14 
   96     1         3.8757750000        12.5694805762         4.8249469100        -6.5334927671         0.0000000000        -0.0437276473         0.1325535478         0.1395799060        22.9529321186    14 
   97     1         1.2919250000        11.4893636118         6.1587945951        -6.5794290803        -0.0000000000        -0.0109144743        -0.0326071467         0.0343853423        23.1512011973    12 
   98     1         3.8757750000        15.6740549029         3.6712298887        -6.5474576062         0.0000000000         0.0930329798         0.2630352452         0.2790030027        22.5013007030    14 
   99     1         1.2919250000        14.4523399337         5.0726346803        -6.6030045400        -0.0000000000        -0.0157518521         0.1661260048         0.1668711189        22.9917290694    16 
  100     1         3.8757750000        20.4232723048        10.4802046743        -6.6282730718         0.0000000000         0.0195531198         0.0052118322         0.0202358021        23.3860253441    14 
  101     1         3.8757750000         9.2832229594         9.1578605134        -6.6363422789         0.0000000000         0.0088051480        -0.0320341944         0.0332222853        23.4812932805    14 
  102     1         1.2919250000         8.1702315614        10.6628655447        -6.6321062770        -0.0000000000         0.0087438874        -0.0263105888         0.0277254873        23.4384624942    14 
  103     1         3.8757750000        12.2306491169         7.9314821447        -6.6532594644         0.0000000000        -0.0115823942         0.0266780058         0.0290838073        23.3261348104    16 
  104     1         1.2919250000        11.1250218371         9.3907248760        -6.6161000260        -0.0000000000        -0.0042795366        -0.0133525651         0.0140216058        23.2755143617    12 
  105     1         3.8757750000        15.2412397997         6.7246397693        -6.6150590060         0.0000000000         0.0311945890         0.1048988915         0.1094389319        23.0414837127    14 
  106     1         1.2919250000        14.0929558329         8.1691937423        -6.6361932681         0.0000000000        -0.0041592404         0.0502088859         0.0503808645        23.1877791548    14 
  107     1         1.2919250000        17.1139129945         6.8759649264        -6.6511484099        -0.0000000000         0.0489842215         0.0420506029         0.0645577816        23.3699952077    14 
  108     1         3.8757750000         8.8915317314        12.4024406727        -6.6412473406        -0.0000000000        -0.0119093675        -0.0002023584         0.0119110866        23.4816090797    14 
  109     1         3.8757750000        11.8629330791        11.1194749837        -6.6472337795         0.0000000000        -0.0083217195         0.0019321519         0.0085430806        23.4003730310    18 
  110     1         1.2919250000        10.7424309594        12.5974587650        -6.6240707109        -0.0000000000        -0.0158937018        -0.0193677120         0.0250543015        23.3054949115    12 
  111     1         3.8757750000        14.8512362459         9.8681437463        -6.6297455984         0.0000000000         0.0121677477         0.0357004209         0.0377170272        23.2599861030    14 
  112     1         1.2919250000        13.7237373833        11.3357847729        -6.6324720366        -0.0000000000        -0.0024009776         0.0040585486         0.0047155604        23.2834505553    12 
  113     1         3.8757750000        17.8501802598         8.5884938807        -6.6171884467         0.0000000000         0.0432980619         0.0411460814         0.0597304125        23.2296965906    14 
  114     1         1.2919250000        16.7157862585        10.0576300991        -6.6463188969        -0.0000000000         0.0218341980         0.0110036747         0.0244502160        23.4136164192    14 
  115     1         3.8757750000        11.4784438881        14.3192894481        -6.6463188969         0.0000000000        -0.0218341980        -0.0110036746         0.0244502159        23.4136164192    14 
  116     1         1.2919250000        24.4411649599        15.7884256666        -6.6171884467        -0.0000000000        -0.0432980622        -0.0411460813         0.0597304126        23.2296965906    14 
  117     1         3.8757750000        14.4704927634        13.0411347743        -6.6324720366         0.0000000000         0.0024009776        -0.0040585485         0.0047155604        23.2834505553    12 
  118     1         1.2919250000        13.3429939008        14.5087758009        -6.6297455984        -0.0000000000        -0.0121677476        -0.0357004208         0.0377170270        23.2599861030    14 
  119     1         3.8757750000        17.4517991873        11.7794607823        -6.6240707109        -0.0000000000         0.0158937018         0.0193677121         0.0250543016        23.3054949115    12 
  120     1         1.2919250000        16.3312970675        13.2574445635        -6.6472337795        -0.0000000000         0.0083217195        -0.0019321518         0.0085430806        23.4003730310    18 
  121     1         1.2919250000        19.3026984152        11.9744788745        -6.6412473406        -0.0000000000         0.0119093675         0.0002023585         0.0119110866        23.4816090797    14 
  122     1         3.8757750000        25.1774322252        17.5009546208        -6.6511484099        -0.0000000000        -0.0489842218        -0.0420506028         0.0645577817        23.3699952077    14 
  123     1         3.8757750000        14.1012743137        16.2077258049        -6.6361932681        -0.0000000000         0.0041592404        -0.0502088858         0.0503808644        23.1877791548    14 
  124     1         1.2919250000        12.9529903469        17.6522797779        -6.6150590060        -0.0000000000        -0.0311945890        -0.1048988914         0.1094389318        23.0414837127    14 
  125     1         3.8757750000        17.0692083096        14.9861946712        -6.6161000260        -0.0000000000         0.0042795366         0.0133525652         0.0140216059        23.2755143617    12 
  126     1         1.2919250000        15.9635810298        16.4454374025        -6.6532594644        -0.0000000000         0.0115823942        -0.0266780056         0.0290838072        23.3261348104    16 
  127     1         3.8757750000        20.0239985853        13.7140540025        -6.6321062770         0.0000000000        -0.0087438873         0.0263105889         0.0277254874        23.4384624942    14 
  128     1         1.2919250000        18.9110071872        15.2190590338        -6.6363422789        -0.0000000000        -0.0088051480         0.0320341945         0.0332222854        23.4812932805    14 
  129     1         1.2919250000        21.8680729148        13.8967148729        -6.6282730718         0.0000000000        -0.0195531200        -0.0052118321         0.0202358023        23.3860253441    14 
  130     1         3.8757750000        13.7418902130        19.3042848669        -6.6030045400         0.0000000000         0.0157518521        -0.1661260047         0.1668711188        22.9917290694    16 
  131     1         1.2919250000        26.6172903167        20.7056896585        -6.5474576062        -0.0000000000        -0.0930329801        -0.2630352451         0.2790030027        22.5013007030    14 
  132     1         3.8757750000        16.7048665349        18.2181249521        -6.5794290803         0.0000000000         0.0109144744         0.0326071468         0.0343853424        23.1512011973    12 
  133     1         1.2919250000        15.6247495705        19.5519726373        -6.5334927671        -0.0000000000         0.0437276473        -0.1325535477         0.1395799059        22.9529321186    14 
  134     1         3.8757750000        19.6167752259        16.9704809225        -6.6250529055         0.0000000000        -0.0449905342         0.0700062337         0.0832167106        23.4971201395    14 
  135     1         1.2919250000        18.5347619090        18.5047576781        -6.6228115077        -0.0000000000        -0.0140737138         0.1050754530         0.1060137739        23.5721349545    14 
  136     1         3.8757750000        22.5842798962        15.6381332175        -6.6485928077         0.0000000000        -0.0452995635         0.0227435080         0.0506884367        23.5153981311    16 
  137     1         1.2919250000        21.4565424488        17.1293759098        -6.6132472475        -0.0000000000        -0.0601068736         0.0147230127         0.0618837892        23.2846351919    12 
  138     1         3.8757750000        27.4471964400        22.2835672216        -6.4867771248         0.0000000000        -0.0050802817        -0.3937757097         0.3938084798        22.6544638392    14 
  139     1         3.8757750000        16.3467194098        21.5109877189        -6.5090893374        -0.0000000000         0.0237440618         0.1145368614         0.1169721039        24.7338924525    12 
  140     1         1.2919250000        29.2658378657        22.3988847525        -6.2409891239        -0.0000000000        -0.0413224183        -0.4914489708         0.4931831639        22.8496101513    16 
  141     1         3.8757750000        19.1879721822        20.3100437847        -6.6026340160         0.0000000000        -0.1028168655         0.1973385065         0.2225169521        23.6944604582    14 
  142     1         1.2919250000        18.1801580995        21.8727087413        -6.5941270122        -0.0000000000         0.0022991892         0.2625017088         0.2625117776        24.7114385715    14 