ITEM: TIMESTEP
0
ITEM: NUMBER OF ATOMS
152
ITEM: BOX BOUNDS xy xz yz pp pp pp
0.0000000000000000e+000 5.1677000000000088e+000 2.0000000000000002e-015
0.0000000000000000e+000 4.7930191248931763e+001 7.0000000000000001e-015
0.0000000000000000e+000 4.8753839094000000e+001 3.3833076175931765e+001
ITEM: ATOMS id type x y z c_peatom c_datom[1] c_datom[2] c_datom[3] c_datom[4] c_voratom[1] c_voratom[2] 
    1     1         1.2919250000        18.0294682253        25.8635053710        -6.5427786625         0.0000000000         0.0000000000         0.0000000000         0.0000000000        27.6298848088    17 
    2     1         3.8757750000        19.1423983627        27.3573882367        -6.5642800251        -0.0000000000         0.0000000000         0.0000000000         0.0000000000        24.4780560413    12 
    3     1         3.8757750000        21.7392353499        25.4380462165        -6.6185680026         0.0000000000         0.0000000000         0.0000000000         0.0000000000        24.8606060109    14 
    4     1         1.2919250000        20.9972819250        27.1436320617        -6.5646556973         0.0000000000        -0.0000000000        -0.0000000000         0.0000000000        23.9934455285    14 
    5     1         1.2919250000        23.5941189122        25.2255744525        -6.4954509233        -0.0000000000        -0.0000000000        -0.0000000000         0.0000000000        21.8933949671    16 
    6     1         3.8757750000        22.1102120623        28.6411338159        -6.6438617900         0.0000000000        -0.0000000000        -0.0000000000         0.0000000000        23.3780925051    14 
    7     1         1.2919250000        21.3682586374        30.3541568692        -6.6254450015        -0.0000000000         0.0000000000         0.0000000000         0.0000000000        23.3986595348    14 
    8     1         3.8757750000        24.7070490495        26.7164016428        -6.5366533762         0.0000000000         0.0000000000         0.0000000000         0.0000000000        22.3879684568    14 
    9     1         1.2919250000        23.9650956246        28.4270781033        -6.6578570754         0.0000000000         0.0000000000         0.0000000000         0.0000000000        23.3709624201    14 
   10     1         3.8757750000        27.3038860367        24.8010672104        -4.2587863030        -0.0000000000         0.0000000000         0.0000000000         0.0000000000        19.2542493838    11 
   11     1         1.2919250000        26.5619326118        26.5029584621        -6.0401566742         0.0000000000         0.0000000000         0.0000000000         0.0000000000        21.3342028297    14 
   12     1         1.2919250000        29.1587695990        24.5889693675         1.9356049442         0.0000000000         0.0000000000         0.0000000000         0.0000000000        20.2030979522    15 
   13     1         3.8757750000        22.4811887748        31.8533644054        -6.6350429054        -0.0000000000        -0.0000000000         0.0000000000         0.0000000000        23.4034616467    14 
   14     1         3.8757750000        25.0780257620        29.9258426985        -6.6681727256         0.0000000000         0.0000000000        -0.0000000000         0.0000000000        23.3961639971    14 
   15     1         1.2919250000        24.3360723371        31.6391861971        -6.6350160012         0.0000000000         0.0000000000         0.0000000000         0.0000000000        23.4030408945    14 
   16     1         3.8757750000        27.6748627492        27.9990612445        -6.6859171535         0.0000000000         0.0000000000         0.0000000000         0.0000000000        23.3613603937    14 
   17     1         1.2919250000        26.9329093243        29.7116953345        -6.6541998707         0.0000000000         0.0000000000         0.0000000000         0.0000000000        23.3935709813    14 
   18     1         3.8757750000        30.2716997364        26.0764961629        -6.6189811089         0.0000000000        -0.0000000000         0.0000000000         0.0000000000        26.1494773954    15 
   19     1         1.2919250000        29.5297463114        27.7851141907        -6.6495056202         0.0000000000        -0.0000000000        -0.0000000000         0.0000000000        23.3509098283    14 
   20     1         3.8757750000        25.4490024744        33.1384493847        -6.6348224145         0.0000000000        -0.0000000000         0.0000000000         0.0000000000        23.4044224374    14 
   21     1         1.2919250000        24.7070490495        34.8519123892        -6.6347274138         0.0000000000        -0.0000000000         0.0000000000         0.0000000000        23.4047202944    14 
   22     1         3.8757750000        28.0458394616        31.2108338706        -6.6352258534         0.0000000000         0.0000000000         0.0000000000         0.0000000000        23.4022847063    14 
   23     1         1.2919250000        27.3038860367        32.9242673463        -6.6348184665         0.0000000000        -0.0000000000         0.0000000000         0.0000000000        23.4043043694    14 
   24     1         3.8757750000        30.6426764488        29.2834282226        -6.6172176636        -0.0000000000         0.0000000000         0.0000000000         0.0000000000        23.3893032713    14 
   25     1         1.2919250000        29.9007230239        30.9966604250        -6.6351626409        -0.0000000000         0.0000000000        -0.0000000000         0.0000000000        23.4014986404    14 
   26     1         1.2919250000        32.4975600111        29.0693129093        -6.6105525700         0.0000000000         0.0000000000         0.0000000000         0.0000000000        23.3848566429    14 
   27     1         3.8757750000        25.8199791869        36.3511960630        -6.6347167197         0.0000000000        -0.0000000000         0.0000000000         0.0000000000        23.4047680178    14 
   28     1         1.2919250000        39.1751408353        38.0646629607        -6.6347276534         0.0000000000         0.0000000000         0.0000000000         0.0000000000        23.4047362330    14 
   29     1         3.8757750000        28.4168161741        34.4235459715        -6.6347429658        -0.0000000000         0.0000000000         0.0000000000         0.0000000000        23.4046896611    14 
   30     1         1.2919250000        27.6748627492        36.1370126173        -6.6347166895         0.0000000000         0.0000000000         0.0000000000         0.0000000000        23.4047657966    14 
   31     1         3.8757750000        31.0136531613        32.4959044035        -6.6349087804        -0.0000000000         0.0000000000         0.0000000000         0.0000000000        23.4040896235    14 
   32     1         1.2919250000        30.2716997364        34.2093628725        -6.6347423315         0.0000000000         0.0000000000         0.0000000000         0.0000000000        23.4046570564    14 
   33     1         3.8757750000        33.6104901485        30.5683212889        -6.6217559630         0.0000000000         0.0000000000         0.0000000000         0.0000000000        23.4001062550    14 
   34     1         1.2919250000        32.8685367235        32.2817236861        -6.6348983162         0.0000000000         0.0000000000         0.0000000000         0.0000000000        23.4038662473    14 
   35     1         3.8757750000        40.2880709727        39.5639443865        -6.6347699037         0.0000000000         0.0000000000         0.0000000000         0.0000000000        23.4045352095    14 
   36     1         3.8757750000        28.7877928865        37.6362962624        -6.6347198176         0.0000000000         0.0000000000         0.0000000000         0.0000000000        23.4047515242    14 
   37     1         1.2919250000        28.0458394616        39.3497616531        -6.6347714333        -0.0000000000         0.0000000000         0.0000000000         0.0000000000        23.4045974090    14 
   38     1         3.8757750000        31.3846298737        35.7086457714        -6.6347199341        -0.0000000000         0.0000000000         0.0000000000         0.0000000000        23.4047593501    14 
   39     1         1.2919250000        30.6426764488        37.4221128699        -6.6347199341         0.0000000000        -0.0000000000         0.0000000000         0.0000000000        23.4047593501    14 
   40     1         3.8757750000        33.9814668609        33.7809969883        -6.6347714334         0.0000000000         0.0000000000         0.0000000000         0.0000000000        23.4045974101    14 
   41     1         1.2919250000        33.2395134360        35.4944623789        -6.6347198176         0.0000000000         0.0000000000         0.0000000000         0.0000000000        23.4047515247    14 
   42     1         1.2919250000        35.8363504232        33.5668142549        -6.6347699038         0.0000000000        -0.0000000000         0.0000000000         0.0000000000        23.4045352099    14 
   43     1         3.8757750000        29.1587695990        40.8490349552        -6.6348983162         0.0000000000        -0.0000000000         0.0000000000         0.0000000000        23.4038662466    14 
   44     1         1.2919250000        42.5139312474        42.5624373524        -6.6217559630         0.0000000000         0.0000000000         0.0000000000         0.0000000000        23.4001062554    14 
   45     1         3.8757750000        31.7556065862        38.9213957688        -6.6347423315         0.0000000000         0.0000000000         0.0000000000         0.0000000000        23.4046570564    14 
   46     1         1.2919250000        31.0136531613        40.6348542378        -6.6349087804         0.0000000000         0.0000000000         0.0000000000         0.0000000000        23.4040896231    14 
   47     1         3.8757750000        34.3524435734        36.9937460240        -6.6347166895         0.0000000000         0.0000000000         0.0000000000         0.0000000000        23.4047657970    14 
   48     1         1.2919250000        33.6104901485        38.7072126698        -6.6347429658        -0.0000000000         0.0000000000         0.0000000000         0.0000000000        23.4046896611    14 
   49     1         3.8757750000        36.9492805606        35.0660956806        -6.6347276534        -0.0000000000        -0.0000000000         0.0000000000         0.0000000000        23.4047362326    14 
   50     1         1.2919250000        36.2073271356        36.7795625783        -6.6347167197         0.0000000000         0.0000000000         0.0000000000         0.0000000000        23.4047680186    14 
   51     1         3.8757750000        43.6268613848        44.0614457320        -6.6105525699        -0.0000000000        -0.0000000000        -0.0000000000         0.0000000000        23.3848566425    14 
   52     1         3.8757750000        32.1265832986        42.1340982164        -6.6351626410         0.0000000000         0.0000000000         0.0000000000         0.0000000000        23.4014986400    14 
   53     1         1.2919250000        31.3846298737        43.8473304188        -6.6172176636        -0.0000000000        -0.0000000000         0.0000000000         0.0000000000        23.3893032702    14 
   54     1         3.8757750000        34.7234202858        40.2064912950        -6.6348184665        -0.0000000000         0.0000000000         0.0000000000         0.0000000000        23.4043043694    14 
   55     1         1.2919250000        33.9814668609        41.9199247707        -6.6352258534         0.0000000000        -0.0000000000         0.0000000000         0.0000000000        23.4022847063    14 
   56     1         3.8757750000        37.3202572730        38.2788462521        -6.6347274139        -0.0000000000         0.0000000000         0.0000000000         0.0000000000        23.4047202955    14 
   57     1         1.2919250000        36.5783038481        39.9923092566        -6.6348224144         0.0000000000         0.0000000000         0.0000000000         0.0000000000        23.4044224378    14 
   58     1         3.8757750000        32.4975600111        45.3456444507        -6.6495056202        -0.0000000000         0.0000000000         0.0000000000         0.0000000000        23.3509098276    14 
   59     1         1.2919250000        45.8527216595        47.0542624784        -6.6189811090        -0.0000000000        -0.0000000000        -0.0000000000         0.0000000000        26.1494773955    15 
   60     1         3.8757750000        35.0943969983        43.4190633069        -6.6541998707         0.0000000000        -0.0000000000         0.0000000000         0.0000000000        23.3935709813    14 
   61     1         1.2919250000        34.3524435734        45.1316973968        -6.6859171535         0.0000000000         0.0000000000         0.0000000000         0.0000000000        23.3613603932    14 
   62     1         3.8757750000        37.6912339855        41.4915724442        -6.6350160012         0.0000000000        -0.0000000000         0.0000000000         0.0000000000        23.4030408950    14 
   63     1         1.2919250000        36.9492805606        43.2049159428        -6.6681727256         0.0000000000         0.0000000000         0.0000000000         0.0000000000        23.3961639971    14 
   64     1         1.2919250000        39.5461175477        41.2773942359        -6.6350429054         0.0000000000         0.0000000000         0.0000000000         0.0000000000        23.4034616474    14 
   65     1         3.8757750000        46.9656517969        48.5417892739         1.9356049498        -0.0000000000        -0.0000000000         0.0000000000         0.0000000000        20.2030979500    15 
   66     1         3.8757750000        35.4653737107        46.6278001792        -6.0401566735        -0.0000000000         0.0000000000         0.0000000000         0.0000000000        21.3342028288    14 
   67     1         1.2919250000        34.7234202858        48.3296914309        -4.2587863007         0.0000000000        -0.0000000000         0.0000000000         0.0000000000        19.2542493818    11 
   68     1         3.8757750000        38.0622106979        44.7036805380        -6.6578570754        -0.0000000000         0.0000000000         0.0000000000         0.0000000000        23.3709624201    14 
   69     1         1.2919250000        37.3202572730        46.4143569985        -6.5366533761         0.0000000000         0.0000000000         0.0000000000         0.0000000000        22.3879684563    14 
   70     1         3.8757750000        40.6590476851        42.7766017722        -6.6254450016         0.0000000000        -0.0000000000        -0.0000000000         0.0000000000        23.3986595359    14 
   71     1         1.2919250000        39.9170942602        44.4896248254        -6.6438617900         0.0000000000         0.0000000000         0.0000000000         0.0000000000        23.3780925055    14 
   72     1         3.8757750000        38.4331874104        47.9051841889        -6.4954509232        -0.0000000000         0.0000000000         0.0000000000         0.0000000000        21.8933949660    16 
   73     1         3.8757750000        41.0300243976        45.9871265796        -6.5646556974         0.0000000000        -0.0000000000         0.0000000000         0.0000000000        23.9934455287    14 
   74     1         1.2919250000        40.2880709727        47.6927124248        -6.6185680027         0.0000000000         0.0000000000         0.0000000000         0.0000000000        24.8606060096    14 
   75     1         1.2919250000        42.8849079598        45.7733704046        -6.5642800252         0.0000000000        -0.0000000000         0.0000000000         0.0000000000        24.4780560419    12 
   76     1         3.8757750000        43.9978380972        47.2672532703        -6.5427786626        -0.0000000000         0.0000000000         0.0000000000         0.0000000000        27.6298848093    17 
   77     1         3.8757750000         1.8548835623         0.2120498203        -5.5125553002         0.0000000000         0.0000000000         0.0000000000         0.0000000000        19.0483978294    16 
   78     1         1.2919250000         3.7097671246         0.4241476633        -6.3756228441        -0.0000000000        -0.0000000000         0.0000000000         0.0000000000        21.2087453708    12 
   79     1         3.8757750000         4.4517205495         2.1260389150        -6.6112786988         0.0000000000         0.0000000000         0.0000000000         0.0000000000        22.8878240626    14 
   80     1         1.2919250000         3.3387904121         3.6221416974        -6.7066261702         0.0000000000         0.0000000000         0.0000000000         0.0000000000        23.3613603920    14 
   81     1         3.8757750000         7.4195342491         0.8486549054        -6.5774300418        -0.0000000000        -0.0000000000         0.0000000000         0.0000000000        25.3979359758    14 
   82     1         1.2919250000         6.3066041117         2.3394820957        -6.6349836821         0.0000000000         0.0000000000         0.0000000000         0.0000000000        23.6270492074    14 
   83     1         1.2919250000         9.2744178114         1.0611266694        -6.4710626726         0.0000000000         0.0000000000         0.0000000000         0.0000000000        28.8035516573    16 
   84     1         3.8757750000         4.0807438370         5.3347757873        -6.6416949490         0.0000000000         0.0000000000         0.0000000000         0.0000000000        23.3935709799    14 
   85     1         3.8757750000         7.0485575367         4.0501585562        -6.6187168804        -0.0000000000         0.0000000000         0.0000000000         0.0000000000        23.3709624201    14 
   86     1         1.2919250000         5.9356273993         5.5489231514        -6.6334007440         0.0000000000        -0.0000000000         0.0000000000         0.0000000000        23.3961639966    14 
   87     1         3.8757750000        10.0163712363         2.7667125146        -6.6000393177         0.0000000000         0.0000000000         0.0000000000         0.0000000000        24.6774722793    14 
   88     1         1.2919250000         8.9034410989         4.2642142688        -6.6059293772         0.0000000000         0.0000000000         0.0000000000         0.0000000000        23.3780925055    14 
   89     1         3.8757750000        12.9841849359         1.4865858239         1.7939509175         0.0000000000         0.0000000000         0.0000000000         0.0000000000        21.5451649836    16 
   90     1         1.2919250000        11.8712547986         2.9804686896        -6.6142055209         0.0000000000         0.0000000000         0.0000000000         0.0000000000        24.9527978846    12 
   91     1         1.2919250000        14.8390684982         1.6995766158        -4.5755527497         0.0000000000         0.0000000000         0.0000000000         0.0000000000        21.3211464186    14 
   92     1         3.8757750000         6.6775808242         7.2622666500        -6.6350160012        -0.0000000000         0.0000000000         0.0000000000         0.0000000000        23.4030408940    14 
   93     1         1.2919250000        19.6617657601         8.7615298376        -6.6348224144         0.0000000000        -0.0000000000         0.0000000000         0.0000000000        23.4044224364    14 
   94     1         3.8757750000         9.6453945238         5.9772373221        -6.6223671169         0.0000000000         0.0000000000         0.0000000000         0.0000000000        23.3986595363    14 
   95     1         1.2919250000         8.5324643865         7.4764448583        -6.6350429054         0.0000000000         0.0000000000         0.0000000000         0.0000000000        23.4034616473    14 
   96     1         3.8757750000        12.6132082235         4.6923933622        -6.6395239811         0.0000000000         0.0000000000         0.0000000000         0.0000000000        23.3848566441    14 
   97     1         1.2919250000        11.5002780861         6.1914017418        -6.6235733885         0.0000000000         0.0000000000         0.0000000000         0.0000000000        23.4001062565    14 
   98     1         3.8757750000        15.5810219231         3.4081946435        -6.7135609027        -0.0000000000        -0.0000000000         0.0000000000         0.0000000000        23.3509098270    14 
   99     1         1.2919250000        14.4680917858         4.9065086755        -6.6645141669         0.0000000000        -0.0000000000         0.0000000000         0.0000000000        23.3893032713    14 
  100     1         3.8757750000        20.4037191850        10.4749928421        -6.6347274138        -0.0000000000         0.0000000000         0.0000000000         0.0000000000        23.4047202943    14 
  101     1         3.8757750000         9.2744178114         9.1898947078        -6.6347699038         0.0000000000         0.0000000000         0.0000000000         0.0000000000        23.4045352105    14 
  102     1         1.2919250000         8.1614876740        10.6891761335        -6.6347276534         0.0000000000        -0.0000000000        -0.0000000000         0.0000000000        23.4047362324    14 
  103     1         3.8757750000        12.2422315110         7.9048041390        -6.6348983162        -0.0000000000         0.0000000000        -0.0000000000         0.0000000000        23.4038662477    14 
  104     1         1.2919250000        11.1293013737         9.4040774412        -6.6347714334        -0.0000000000         0.0000000000         0.0000000000         0.0000000000        23.4045974105    14 
  105     1         3.8757750000        15.2100452107         6.6197408779        -6.6358589512        -0.0000000000         0.0000000000         0.0000000000         0.0000000000        23.4014986399    14 
  106     1         1.2919250000        14.0971150733         8.1189848564        -6.6349087804        -0.0000000000        -0.0000000000         0.0000000000         0.0000000000        23.4040896235    14 
  107     1         1.2919250000        17.0649287729         6.8339143235        -6.6352259340         0.0000000000         0.0000000000         0.0000000000         0.0000000000        23.4022847053    14 
  108     1         3.8757750000         8.9034410989        12.4026430312        -6.6347167197         0.0000000000         0.0000000000         0.0000000000         0.0000000000        23.4047680176    14 
  109     1         3.8757750000        11.8712547986        11.1175428318        -6.6347198176        -0.0000000000         0.0000000000         0.0000000000         0.0000000000        23.4047515247    14 
  110     1         1.2919250000        10.7583246612        12.6168264769        -6.6347166895         0.0000000000         0.0000000000         0.0000000000         0.0000000000        23.4047657965    14 
  111     1         3.8757750000        14.8390684982         9.8324433254        -6.6347423315        -0.0000000000         0.0000000000         0.0000000000         0.0000000000        23.4046570564    14 
  112     1         1.2919250000        13.7261383608        11.3317262243        -6.6347199341        -0.0000000000        -0.0000000000         0.0000000000         0.0000000000        23.4047593501    14 
  113     1         3.8757750000        17.8068821979         8.5473477992        -6.6348184665         0.0000000000         0.0000000000         0.0000000000         0.0000000000        23.4043043689    14 
  114     1         1.2919250000        16.6939520605        10.0466264244        -6.6347429658        -0.0000000000         0.0000000000         0.0000000000         0.0000000000        23.4046896611    14 
  115     1         3.8757750000        11.5002780861        14.3302931227        -6.6347429658         0.0000000000         0.0000000000         0.0000000000         0.0000000000        23.4046896601    14 
  116     1         1.2919250000        24.4844630221        15.8295717479        -6.6348184664         0.0000000000         0.0000000000         0.0000000000         0.0000000000        23.4043043680    14 
  117     1         3.8757750000        14.4680917858        13.0451933228        -6.6347199341        -0.0000000000         0.0000000000         0.0000000000         0.0000000000        23.4047593501    14 
  118     1         1.2919250000        13.3551616484        14.5444762217        -6.6347423315        -0.0000000000         0.0000000000         0.0000000000         0.0000000000        23.4046570559    14 
  119     1         3.8757750000        17.4359054854        11.7600930702        -6.6347166895         0.0000000000         0.0000000000         0.0000000000         0.0000000000        23.4047657970    14 
  120     1         1.2919250000        16.3229753480        13.2593767153        -6.6347198176         0.0000000000         0.0000000000         0.0000000000         0.0000000000        23.4047515247    14 
  121     1         1.2919250000        19.2907890477        11.9742765159        -6.6347167197         0.0000000000         0.0000000000         0.0000000000         0.0000000000        23.4047680185    14 
  122     1         3.8757750000        25.2264164470        17.5430052236        -6.6352259340         0.0000000000         0.0000000000         0.0000000000         0.0000000000        23.4022847047    14 
  123     1         3.8757750000        14.0971150733        16.2579346907        -6.6349087804         0.0000000000         0.0000000000         0.0000000000         0.0000000000        23.4040896231    14 
  124     1         1.2919250000        12.9841849359        17.7571786692        -6.6358589511        -0.0000000000         0.0000000000         0.0000000000         0.0000000000        23.4014986388    14 
  125     1         3.8757750000        17.0649287729        14.9728421060        -6.6347714334         0.0000000000         0.0000000000         0.0000000000         0.0000000000        23.4045974105    14 
  126     1         1.2919250000        15.9519986356        16.4721154081        -6.6348983162         0.0000000000         0.0000000000         0.0000000000         0.0000000000        23.4038662477    14 
  127     1         3.8757750000        20.0327424726        13.6877434136        -6.6347276534        -0.0000000000        -0.0000000000         0.0000000000         0.0000000000        23.4047362336    14 
  128     1         1.2919250000        18.9198123352        15.1870248393        -6.6347699038         0.0000000000        -0.0000000000         0.0000000000         0.0000000000        23.4045352110    14 
  129     1         1.2919250000        21.8876260349        13.9019267050        -6.6347274138         0.0000000000         0.0000000000         0.0000000000         0.0000000000        23.4047202950    14 
  130     1         3.8757750000        13.7261383608        19.4704108716        -6.6645141668        -0.0000000000        -0.0000000000         0.0000000000         0.0000000000        23.3893032703    14 
  131     1         1.2919250000        26.7103232968        20.9687249036        -6.7135609027         0.0000000000         0.0000000000         0.0000000000         0.0000000000        23.3509098277    14 
  132     1         3.8757750000        16.6939520605        18.1855178053        -6.6235733885         0.0000000000         0.0000000000         0.0000000000         0.0000000000        23.4001062565    14 
  133     1         1.2919250000        15.5810219231        19.6845261849        -6.6395239810         0.0000000000        -0.0000000000         0.0000000000         0.0000000000        23.3848566435    14 
  134     1         3.8757750000        19.6617657601        16.9004746888        -6.6350429054         0.0000000000         0.0000000000         0.0000000000         0.0000000000        23.4034616478    14 
  135     1         1.2919250000        18.5488356228        18.3996822251        -6.6223671169         0.0000000000         0.0000000000         0.0000000000         0.0000000000        23.3986595363    14 
  136     1         3.8757750000        22.6295794598        15.6153897095        -6.6348224144         0.0000000000         0.0000000000         0.0000000000         0.0000000000        23.4044224373    14 
  137     1         1.2919250000        21.5166493224        17.1146528971        -6.6350160012         0.0000000000         0.0000000000         0.0000000000         0.0000000000        23.4030408950    14 
  138     1         3.8757750000        27.4522767217        22.6773429313        -4.5755527518        -0.0000000000         0.0000000000        -0.0000000000         0.0000000000        21.3211464201    14 
  139     1         3.8757750000        16.3229753480        21.3964508575        -6.6142055209        -0.0000000000         0.0000000000         0.0000000000         0.0000000000        24.9527978835    12 
  140     1         1.2919250000        29.3071602840        22.8903337232         1.7939509122         0.0000000000         0.0000000000         0.0000000000         0.0000000000        21.5451649837    16 
  141     1         3.8757750000        19.2907890477        20.1127052783        -6.6059293772         0.0000000000        -0.0000000000         0.0000000000         0.0000000000        23.3780925055    14 
  142     1         1.2919250000        18.1778589103        21.6102070325        -6.6000393177         0.0000000000         0.0000000000         0.0000000000         0.0000000000        24.6774722787    14 