LAMMPS (11 Aug 2017)
OMP_NUM_THREADS environment is not set. Defaulting to 1 thread. (../comm.cpp:90)
  using 1 OpenMP thread(s) per MPI task
units        metal
dimension    3
boundary     p p p
box          tilt large
atom_style   atomic

read_data    atoms.lammps
  triclinic box = (0 0 0) to (5.1677 14.0971 48.7538) with tilt (2e-015 7e-015 33.8331)
WARNING: Triclinic box skew is large (../domain.cpp:197)
  1 by 1 by 1 MPI processor grid
  reading atoms ...
  152 atoms

pair_style eam/fs
pair_coeff * * "C:\Users\adamj\dropbox\code_db\supporting_manuscript_code\first-principles-zr-grain-boundaries\data\potential\Zr_3.eam.fs" Zr


compute peatom all pe/atom
compute datom all displace/atom
compute voratom all voronoi/atom

thermo_style custom step atoms pe ke etotal fmax
thermo_modify format float %20.10f
thermo 1

dump 1 all custom 100 dump.*.txt id type x y z c_peatom c_datom[1] c_datom[2] c_datom[3] c_datom[4] c_voratom[1] c_voratom[2]
dump_modify 1 format line "%5d %5d %20.10f %20.10f %20.10f %20.10f %20.10f %20.10f %20.10f %20.10f %20.10f %5.f"

min_style cg
minimize 0.0 1.0e-6 10000 100000
WARNING: Using 'neigh_modify every 1 delay 0 check yes' setting during minimization (../min.cpp:168)
Neighbor list info ...
  update every 1 steps, delay 0 steps, check yes
  max neighbors/atom: 2000, page size: 100000
  master list distance cutoff = 9.6
  ghost atom cutoff = 9.6
  binsize = 4.8, bins = 2 10 11
  1 neighbor lists, perpetual/occasional/extra = 1 0 0
  (1) pair eam/fs, perpetual
      attributes: half, newton on
      pair build: half/bin/newton/tri
      stencil: half/bin/3d/newton/tri
      bin: standard
Per MPI rank memory allocation (min/avg/max) = 6.806 | 6.806 | 6.806 Mbytes
Step Atoms PotEng KinEng TotEng Fmax 
       0      152      -960.4861514445         0.0000000000      -960.4861514445        48.4751138992 
       1      152      -978.2608240834         0.0000000000      -978.2608240834        28.7735300570 
       2      152      -990.2256366150         0.0000000000      -990.2256366150        17.2970264763 
       3      152      -997.2954554125         0.0000000000      -997.2954554125         8.8347755485 
       4      152      -999.2659197862         0.0000000000      -999.2659197862         2.2614935780 
       5      152     -1000.9512495067         0.0000000000     -1000.9512495067         1.3827119533 
       6      152     -1002.0550236544         0.0000000000     -1002.0550236544         0.6070373378 
       7      152     -1002.9130131273         0.0000000000     -1002.9130131273         0.5186882541 
       8      152     -1003.2446682126         0.0000000000     -1003.2446682126         0.3236563816 
       9      152     -1003.3727064490         0.0000000000     -1003.3727064490         0.3266559434 
      10      152     -1003.4474981759         0.0000000000     -1003.4474981759         0.1488533231 
      11      152     -1003.4776616696         0.0000000000     -1003.4776616696         0.1380871031 
      12      152     -1003.4935869280         0.0000000000     -1003.4935869280         0.0618104823 
      13      152     -1003.5006392858         0.0000000000     -1003.5006392858         0.0450886896 
      14      152     -1003.5047439346         0.0000000000     -1003.5047439346         0.0432072459 
      15      152     -1003.5070637745         0.0000000000     -1003.5070637745         0.0208932022 
      16      152     -1003.5086739046         0.0000000000     -1003.5086739046         0.0123191100 
      17      152     -1003.5097278715         0.0000000000     -1003.5097278715         0.0123096894 
      18      152     -1003.5104306723         0.0000000000     -1003.5104306723         0.0157995320 
      19      152     -1003.5109057850         0.0000000000     -1003.5109057850         0.0127597981 
      20      152     -1003.5113334775         0.0000000000     -1003.5113334775         0.0098200523 
      21      152     -1003.5115920283         0.0000000000     -1003.5115920283         0.0152228105 
      22      152     -1003.5117779807         0.0000000000     -1003.5117779807         0.0063448690 
      23      152     -1003.5118981574         0.0000000000     -1003.5118981574         0.0033784577 
      24      152     -1003.5119748964         0.0000000000     -1003.5119748964         0.0039692290 
      25      152     -1003.5120209033         0.0000000000     -1003.5120209033         0.0031722489 
      26      152     -1003.5120438005         0.0000000000     -1003.5120438005         0.0024342230 
      27      152     -1003.5120583162         0.0000000000     -1003.5120583162         0.0015250898 
      28      152     -1003.5120663197         0.0000000000     -1003.5120663197         0.0017921556 
      29      152     -1003.5120712222         0.0000000000     -1003.5120712222         0.0012570771 
      30      152     -1003.5120749108         0.0000000000     -1003.5120749108         0.0009120826 
      31      152     -1003.5120775152         0.0000000000     -1003.5120775152         0.0010877217 
      32      152     -1003.5120802291         0.0000000000     -1003.5120802291         0.0009025722 
      33      152     -1003.5120838850         0.0000000000     -1003.5120838850         0.0009298759 
      34      152     -1003.5120896984         0.0000000000     -1003.5120896984         0.0009159281 
      35      152     -1003.5120948002         0.0000000000     -1003.5120948002         0.0011269627 
      36      152     -1003.5120972868         0.0000000000     -1003.5120972868         0.0010758520 
      37      152     -1003.5120986376         0.0000000000     -1003.5120986376         0.0003878643 
      38      152     -1003.5120993099         0.0000000000     -1003.5120993099         0.0003808318 
      39      152     -1003.5120995977         0.0000000000     -1003.5120995977         0.0002948128 
      40      152     -1003.5120997498         0.0000000000     -1003.5120997498         0.0001659374 
      41      152     -1003.5120998661         0.0000000000     -1003.5120998661         0.0001385394 
      42      152     -1003.5120999446         0.0000000000     -1003.5120999446         0.0001487697 
      43      152     -1003.5120999987         0.0000000000     -1003.5120999987         0.0001278309 
      44      152     -1003.5121000314         0.0000000000     -1003.5121000314         0.0000804346 
      45      152     -1003.5121000467         0.0000000000     -1003.5121000467         0.0000727505 
      46      152     -1003.5121000566         0.0000000000     -1003.5121000566         0.0000624626 
      47      152     -1003.5121000626         0.0000000000     -1003.5121000626         0.0000299670 
      48      152     -1003.5121000659         0.0000000000     -1003.5121000659         0.0000232274 
      49      152     -1003.5121000673         0.0000000000     -1003.5121000673         0.0000196988 
      50      152     -1003.5121000679         0.0000000000     -1003.5121000679         0.0000120082 
      51      152     -1003.5121000683         0.0000000000     -1003.5121000683         0.0000068781 
      52      152     -1003.5121000684         0.0000000000     -1003.5121000684         0.0000041094 
      53      152     -1003.5121000685         0.0000000000     -1003.5121000685         0.0000049312 
      54      152     -1003.5121000685         0.0000000000     -1003.5121000685         0.0000042108 
      55      152     -1003.5121000685         0.0000000000     -1003.5121000685         0.0000015647 
      56      152     -1003.5121000685         0.0000000000     -1003.5121000685         0.0000015070 
      57      152     -1003.5121000685         0.0000000000     -1003.5121000685         0.0000011025 
      58      152     -1003.5121000686         0.0000000000     -1003.5121000686         0.0000004765 
      59      152     -1003.5121000685         0.0000000000     -1003.5121000685         0.0000003043 
      60      152     -1003.5121000685         0.0000000000     -1003.5121000685         0.0000004251 
      61      152     -1003.5121000685         0.0000000000     -1003.5121000685         0.0000004275 
      62      152     -1003.5121000685         0.0000000000     -1003.5121000685         0.0000001867 
      63      152     -1003.5121000685         0.0000000000     -1003.5121000685         0.0000003560 
      64      152     -1003.5121000685         0.0000000000     -1003.5121000685         0.0000004857 
      65      152     -1003.5121000686         0.0000000000     -1003.5121000686         0.0000002169 
      66      152     -1003.5121000685         0.0000000000     -1003.5121000685         0.0000003408 
      67      152     -1003.5121000685         0.0000000000     -1003.5121000685         0.0000003263 
      68      152     -1003.5121000686         0.0000000000     -1003.5121000686         0.0000002488 
Loop time of 0.105021 on 1 procs for 68 steps with 152 atoms

89.3% CPU use with 1 MPI tasks x 1 OpenMP threads

Minimization stats:
  Stopping criterion = force tolerance
  Energy initial, next-to-last, final = 
        -960.486151445     -1003.51210007     -1003.51210007
  Force two-norm initial, final = 104.261 9.63309e-007
  Force max component initial, final = 48.4751 2.4878e-007
  Final line search alpha, max atom move = 1 2.4878e-007
  Iterations, force evaluations = 68 128

MPI task timing breakdown:
Section |  min time  |  avg time  |  max time  |%varavg| %total
---------------------------------------------------------------
Pair    | 0.055015   | 0.055015   | 0.055015   |   0.0 | 52.38
Neigh   | 0          | 0          | 0          |   0.0 |  0.00
Comm    | 0          | 0          | 0          |   0.0 |  0.00
Output  | 0.0020008  | 0.0020008  | 0.0020008  |   0.0 |  1.91
Modify  | 0          | 0          | 0          |   0.0 |  0.00
Other   |            | 0.04801    |            |       | 45.71

Nlocal:    152 ave 152 max 152 min
Histogram: 1 0 0 0 0 0 0 0 0 0
Nghost:    2658 ave 2658 max 2658 min
Histogram: 1 0 0 0 0 0 0 0 0 0
Neighs:    11326 ave 11326 max 11326 min
Histogram: 1 0 0 0 0 0 0 0 0 0

Total # of neighbors = 11326
Ave neighs/atom = 74.5132
Neighbor list builds = 0
Dangerous builds = 0
Total wall time: 0:00:00
