Header

140 atoms
1 atom types

0.0    5.167700000 xlo xhi
0.0   14.820508055 ylo yhi
0.0   43.143121576 zlo zhi

0.000000000000002        0.000000000000011        85.958946719328750       xy xz yz

Atoms

       1    1       3.875775000000006       47.919642711349937       21.571560787785000
       2    1       1.291925000000006       47.566773471943819       23.470316541429316
       3    1       3.875775000000008       63.798758484624955       24.709404912660055
       4    1       3.875775000000006       51.095465866004943       22.209426331925560
       5    1       1.291925000000006       50.742596626598818       24.091942391879865
       6    1       1.291925000000006       52.859812063035506       21.571560787785000
       7    1       3.875775000000006       52.154073584223269       25.324201100759911
       8    1       3.875775000000006       54.271289020659943       22.842982309189718
       9    1       1.291925000000007       53.918419781253839       24.709404912660052
      10    1       1.291925000000007       56.035635217690498       22.209426331925560
      11    1       3.875775000000006       55.329896738878276       25.937411191840798
      12    1       1.291925000000009       69.797535554528849       27.773037230248558
      13    1       3.875775000000007       57.447112175314949       23.470316541429309
      14    1       1.291925000000007       57.094242935908845       25.324201100759922
      15    1       1.291925000000007       59.211458372345511       22.842982309189725
      16    1       3.875775000000008       71.209012512153294       28.995692774529871
      17    1       3.875775000000008       58.505719893533275       26.549715979735733
      18    1       1.291925000000008       58.152850654127164       28.384406496871598
      19    1       3.875775000000007       60.622935329969941       24.091942391879858
      20    1       1.291925000000008       60.270066090563844       25.937411191840809
      21    1       3.875775000000008       59.564327611751615       29.606933904887669
      22    1       3.875775000000008       61.681543048188281       27.161515723849742
      23    1       1.291925000000007       61.328673808782177       28.995692774529864
      24    1       1.291925000000008       63.445889245218844       26.549715979735733
      25    1       3.875775000000008       62.740150766406622       30.218150501449770
      26    1       1.291925000000010       77.207789582057188       32.051741924440222
      27    1       3.875775000000008       64.857366202843295       27.773037230248544
      28    1       1.291925000000008       64.504496963437163       29.606933904887669
      29    1       1.291925000000008       66.621712399873843       27.161515723849742
      30    1       3.875775000000010       78.619266539681632       33.274132550838949
      31    1       3.875775000000008       65.915973921061621       30.829353773911883
      32    1       1.291925000000008       65.563104681655503       32.662940438914767
      33    1       3.875775000000008       68.033189357498287       28.384406496871602
      34    1       1.291925000000008       67.680320118092183       30.218150501449781
      35    1       3.875775000000010       81.795089694336639       33.885328589443105
      36    1       3.875775000000009       69.091797075716627       31.440549812516039
      37    1       1.291925000000008       68.738927836310509       33.274132550838942
      38    1       1.291925000000009       70.856143272747190       30.829353773911873
      39    1       3.875775000000008       70.150404793934982       34.496531861905218
      40    1       1.291925000000011       84.618043609585541       36.330275866483397
      41    1       3.875775000000009       72.267620230371634       32.051741924440222
      42    1       1.291925000000009       71.914750990965516       33.885328589443105
      43    1       1.291925000000009       74.031966427402196       31.440549812516043
      44    1       3.875775000000010       86.029520567209985       37.553166639505243
      45    1       3.875775000000010       73.326227948589974       35.107748458467334
      46    1       1.291925000000011       87.793866764240533       36.941645133106434
      47    1       3.875775000000010       75.443443385026626       32.662940438914781
      48    1       1.291925000000010       75.090574145620508       34.496531861905204
      49    1       3.875775000000011       89.205343721864978       38.164966383619259
      50    1       3.875775000000010       76.502051103244966       35.718989588825124
      51    1       1.291925000000010       76.149181863838848       37.553166639505235
      52    1       1.291925000000010       78.266397300275514       35.107748458467306
      53    1       3.875775000000009       77.560658821463306       38.777271171514194
      54    1       1.291925000000012       92.028297637113880       40.622739971475120
      55    1       3.875775000000010       79.677874257899973       36.330275866483390
      56    1       1.291925000000010       79.325005018493869       38.164966383619259
      57    1       1.291925000000010       81.442220454930521       35.718989588825124
      58    1       3.875775000000012       93.439774594738310       41.871700054165267
      59    1       3.875775000000010       80.736481976118299       39.390481262595067
      60    1       1.291925000000012       95.204120791768887       41.244365821925662
      61    1       3.875775000000011       82.853697412554965       36.941645133106427
      62    1       1.291925000000010       82.500828173148861       38.777271171514180
      63    1       3.875775000000012       96.615597749393345       42.505256031429433
      64    1       3.875775000000010       83.912305130773305       40.005277450694948
      65    1       1.291925000000011       83.559435891367187       41.871700054165260
      66    1       1.291925000000011       85.676651327803867       39.390481262595067
      67    1       3.875775000000011       87.088128285428283       40.622739971475106
      68    1       1.291925000000011       86.735259046022207       42.505256031429433
      69    1       1.291925000000011       88.852474482458874       40.005277450694933
      70    1       3.875775000000011       90.263951440083304       41.244365821925669
      71    1       3.875775000000000        1.764346197030568        0.637865544140575
      72    1       3.875775000000000        4.940169351685559        0.000000000000004
      73    1       1.291925000000000        3.528692394061122        1.271421521404722
      74    1       1.291925000000000        6.704515548716125        0.637865544140571
      75    1       1.291925000000001        9.880338703371130       -0.000000000000003
      76    1       3.875775000000001        7.057384788122231        2.520381604094876
      77    1       3.875775000000000       10.233207942777234        1.898755753644324
      78    1       1.291925000000001        8.821730985152792        3.137844124875058
      79    1       3.875775000000000       13.409031097432237        1.271421521404732
      80    1       1.291925000000001       11.997554139807793        2.520381604094867
      81    1       1.291925000000001       15.173377294462794        1.898755753644319
      82    1       3.875775000000002       23.995108279615586        4.978155191950742
      83    1       3.875775000000001       12.350423379213904        4.365850404055815
      84    1       1.291925000000003       25.759454476646141        5.589954936064760
      85    1       3.875775000000000       15.526246533868902        3.752640312974923
      86    1       1.291925000000001       14.114769576244457        4.978155191950742
      87    1       3.875775000000001       18.702069688523913        3.137844124875062
      88    1       1.291925000000002       17.290592730899466        4.365850404055817
      89    1       1.291925000000001       20.466415885554465        3.752640312974924
      90    1       3.875775000000001       14.467638815650572        6.812845709086611
      91    1       3.875775000000001       17.643461970305580        6.201476442463560
      92    1       1.291925000000002       16.231985012681136        7.424131986744872
      93    1       3.875775000000002       20.819285124960587        5.589954936064758
      94    1       1.291925000000002       19.407808167336135        6.812845709086611
      95    1       1.291925000000002       22.583631321991131        6.201476442463559
      96    1       3.875775000000004       31.405362307143918        9.257792986126889
      97    1       3.875775000000003       19.760677406742243        8.646589713664783
      98    1       1.291925000000004       33.169708504174480        9.868989024731048
      99    1       3.875775000000002       22.936500561397246        8.035373117102676
     100    1       1.291925000000002       21.525023603772791        9.257792986126887
     101    1       3.875775000000002       26.112323716052249        7.424131986744868
     102    1       1.291925000000003       24.700846758427801        8.646589713664785
     103    1       1.291925000000003       27.876669913082800        8.035373117102679
     104    1       3.875775000000004       36.698400898235604       11.091379651129779
     105    1       3.875775000000002       25.053715997833919       10.480181136655219
     106    1       1.291925000000003       23.642239040209471       11.702571763053955
     107    1       3.875775000000002       28.229539152488922        9.868989024731047
     108    1       1.291925000000003       26.818062194864471       11.091379651129785
     109    1       1.291925000000003       29.993885349519477       10.480181136655220
     110    1       3.875775000000004       38.815616334672264       13.536187670682322
     111    1       3.875775000000002       27.170931434270582       12.924971074120213
     112    1       1.291925000000005       40.579962531702819       14.147428801040128
     113    1       3.875775000000003       30.346754588925585       12.313767801658114
     114    1       1.291925000000003       28.935277631301144       13.536187670682322
     115    1       3.875775000000004       33.522577743580591       11.702571763053955
     116    1       1.291925000000003       32.111100785956147       12.924971074120210
     117    1       1.291925000000004       35.286923940611153       12.313767801658114
     118    1       3.875775000000005       44.108654925763929       15.370084345321443
     119    1       3.875775000000003       32.463970025362244       14.758715078698389
     120    1       1.291925000000005       45.873001122794498       15.981605851720245
     121    1       3.875775000000003       35.639793180017257       14.147428801040130
     122    1       1.291925000000004       34.228316222392813       15.370084345321441
     123    1       1.291925000000004       37.404139377047819       14.758715078698394
     124    1       3.875775000000005       46.225870362200602       17.818920474810078
     125    1       3.875775000000004       34.581185461798924       17.205710383729187
     126    1       1.291925000000006       47.990216559231165       18.433716662909944
     127    1       3.875775000000004       37.757008616453930       16.593405595834259
     128    1       1.291925000000004       36.345531658829479       17.818920474810074
     129    1       3.875775000000003       40.932831771108930       15.981605851720248
     130    1       1.291925000000004       39.521354813484486       17.205710383729187
     131    1       1.291925000000004       42.697177968139485       16.593405595834263
     132    1       3.875775000000005       51.518908953292275       19.672805034140676
     133    1       3.875775000000004       39.874224052890611       19.051179183690135
     134    1       1.291925000000006       53.283255150322830       20.300139266380274
     135    1       3.875775000000004       43.050047207545603       18.433716662909941
     136    1       1.291925000000005       41.638570249921152       19.672805034140683
     137    1       1.291925000000005       44.814393404576151       19.051179183690131
     138    1       3.875775000000004       45.167262643982262       20.933695243644426
     139    1       3.875775000000005       48.343085798637269       20.300139266380278
     140    1       1.291925000000006       50.107431995667831       20.933695243644429
