ITEM: TIMESTEP
300
ITEM: NUMBER OF ATOMS
140
ITEM: BOX BOUNDS xy xz yz pp pp pp
0.0000000000000000e+000 5.1677000000000124e+000 2.0000000000000002e-015
0.0000000000000000e+000 1.0077945477432876e+002 1.1000000000000000e-014
0.0000000000000000e+000 4.3143121575999999e+001 8.5958946719328750e+001
ITEM: ATOMS id type x y z c_peatom c_datom[1] c_datom[2] c_datom[3] c_datom[4] c_voratom[1] c_voratom[2] 
    1     1         3.8757750000        47.7348627231        21.6020462916        -6.5932044477        -0.0000000000        -0.1847799883         0.0304855038         0.1872778951        23.5714013276    16 
    2     1         1.2919250000        47.4620339987        23.4456775725        -6.6223571716         0.0000000000        -0.1047394733        -0.0246389689         0.1075984946        23.4515978875    12 
    3     1         3.8757750000        63.6922438481        24.6769095957        -6.6374377830        -0.0000000000        -0.1065146365        -0.0324953170         0.1113611845        23.5499817026    16 
    4     1         3.8757750000        51.0337559032        22.3331609450        -6.5892334125        -0.0000000000        -0.0617099628         0.1237346131         0.1382692084        23.0659377659    14 
    5     1         1.2919250000        50.6529144252        24.0978104907        -6.6244014138         0.0000000000        -0.0896822014         0.0058680989         0.0898739775        23.2953776694    14 
    6     1         1.2919250000        52.7635454446        21.5926110151        -6.6211932469         0.0000000000        -0.0962666184         0.0210502274         0.0985412294        23.4455792801    14 
    7     1         3.8757750000        52.0801690051        25.3177532100        -6.6345227300        -0.0000000000        -0.0739045792        -0.0064478907         0.0741853228        23.3640058250    14 
    8     1         3.8757750000        54.1881231462        22.8122427166        -6.6523648083        -0.0000000000        -0.0831658744        -0.0307395926         0.0886650169        23.5955182669    14 
    9     1         1.2919250000        53.8320409322        24.6664380373        -6.6449241128         0.0000000000        -0.0863788491        -0.0429668753         0.0964751675        23.5481434668    14 
   10     1         1.2919250000        55.9824317102        22.2742670918        -6.5703797731         0.0000000000        -0.0532035075         0.0648407599         0.0838745333        23.1082209416    16 
   11     1         3.8757750000        55.2422190044        25.8960240676        -6.6404410048        -0.0000000000        -0.0876777344        -0.0413871243         0.0969550369        23.5012988700    14 
   12     1         1.2919250000        69.7126949628        27.7394153016        -6.6377347898         0.0000000000        -0.0848405918        -0.0336219287         0.0912598493        23.5058330962    16 
   13     1         3.8757750000        57.3571158223        23.4532971191        -6.6097713265        -0.0000000000        -0.0899963530        -0.0170194223         0.0915915077        23.4297810631    12 
   14     1         1.2919250000        57.0170913244        25.3038815564        -6.6392541192         0.0000000000        -0.0771516115        -0.0203195444         0.0797825485        23.4191719993    14 
   15     1         1.2919250000        59.1274218926        22.8170327477        -6.6229392578         0.0000000000        -0.0840364798        -0.0259495614         0.0879517463        23.4217487027    14 
   16     1         3.8757750000        71.1209392061        28.9709404773        -6.6348618126        -0.0000000000        -0.0880733061        -0.0247522972         0.0914854276        23.4712111529    14 
   17     1         3.8757750000        58.4151815230        26.5277418019        -6.6303570100        -0.0000000000        -0.0905383706        -0.0219741779         0.0931668452        23.4345139910    14 
   18     1         1.2919250000        58.0692558886        28.3641336785        -6.6349226841         0.0000000000        -0.0835947656        -0.0202728184         0.0860178586        23.4510410084    14 
   19     1         3.8757750000        60.5194798777        24.0794486011        -6.6370664104        -0.0000000000        -0.1034554523        -0.0124937908         0.1042071274        23.3381730877    14 
   20     1         1.2919250000        60.1817292443        25.9062422368        -6.6342572074         0.0000000000        -0.0883368462        -0.0311689551         0.0936744477        23.4692459269    14 
   21     1         3.8757750000        59.4779867381        29.5924329849        -6.6346334327        -0.0000000000        -0.0863408736        -0.0145009200         0.0875501179        23.4713371906    14 
   22     1         3.8757750000        61.5910722068        27.1377155201        -6.6353518152        -0.0000000000        -0.0904708414        -0.0238002037         0.0935490398        23.4530360112    14 
   23     1         1.2919250000        61.2426227440        28.9728043775        -6.6339949210         0.0000000000        -0.0860510648        -0.0228883970         0.0890430484        23.4579275673    14 
   24     1         1.2919250000        63.3546416484        26.5210902614        -6.6315700896         0.0000000000        -0.0912475968        -0.0286257183         0.0956323986        23.4782866343    12 
   25     1         3.8757750000        62.6529848061        30.1997230294        -6.6347681796        -0.0000000000        -0.0871659603        -0.0184274721         0.0890925157        23.4637618527    14 
   26     1         1.2919250000        77.1208996223        32.0340715841        -6.6346787623         0.0000000000        -0.0868899597        -0.0176703404         0.0886685177        23.4443311749    14 
   27     1         3.8757750000        64.7673549926        27.7469400781        -6.6361826115        -0.0000000000        -0.0900112102        -0.0260971522         0.0937180843        23.5127260546    16 
   28     1         1.2919250000        64.4201712460        29.5868890282        -6.6341692919         0.0000000000        -0.0843257174        -0.0200448767         0.0866753927        23.4856016010    14 
   29     1         1.2919250000        66.5387172403        27.1419844568        -6.6324518110         0.0000000000        -0.0829951595        -0.0195312670         0.0852623416        23.4389072974    12 
   30     1         3.8757750000        78.5328855059        33.2583851772        -6.6324517325        -0.0000000000        -0.0863810337        -0.0157473737         0.0878046853        23.4389066997    12 
   31     1         3.8757750000        65.8309233469        30.8134808238        -6.6341692489        -0.0000000000        -0.0850505742        -0.0158729501         0.0865190771        23.4856014006    14 
   32     1         1.2919250000        65.4837397868        32.6534298108        -6.6361826536         0.0000000000        -0.0793648948        -0.0095106281         0.0799327128        23.5127265287    16 
   33     1         3.8757750000        67.9507030969        28.3662982696        -6.6346787363        -0.0000000000        -0.0824862606        -0.0181082273         0.0844505245        23.4443313338    14 
   34     1         1.2919250000        67.5981097876        30.2006468227        -6.6347682260         0.0000000000        -0.0822103305        -0.0175036788         0.0840530619        23.4637626771    14 
   35     1         3.8757750000        81.7169610570        33.8792798446        -6.6315700680        -0.0000000000        -0.0781286373        -0.0060487448         0.0783624354        23.4782869762    12 
   36     1         3.8757750000        69.0084717320        31.4275657711        -6.6339949270        -0.0000000000        -0.0833253437        -0.0129840415         0.0843308855        23.4579280680    14 
   37     1         1.2919250000        68.6600224414        33.2626545426        -6.6353517768         0.0000000000        -0.0789053949        -0.0114780082         0.0797358515        23.4530363309    14 
   38     1         1.2919250000        70.7731077327        30.8079368929        -6.6346334056         0.0000000000        -0.0830355400        -0.0214168810         0.0857530390        23.4713373862    14 
   39     1         3.8757750000        70.0693653313        34.4941280871        -6.6342572390        -0.0000000000        -0.0810394626        -0.0024037748         0.0810751049        23.4692471444    14 
   40     1         1.2919250000        84.5521229890        36.3209217526        -6.6370663434         0.0000000000        -0.0659206205        -0.0093541138         0.0665809857        23.3381740677    14 
   41     1         3.8757750000        72.1818384844        32.0362362985        -6.6349227261        -0.0000000000        -0.0857817459        -0.0155056260         0.0871718554        23.4510414685    14 
   42     1         1.2919250000        71.8359130261        33.8726282404        -6.6303569423         0.0000000000        -0.0788379649        -0.0127003490         0.0798543898        23.4345139163    14 
   43     1         1.2919250000        73.9506631893        31.4294293981        -6.6348617884         0.0000000000        -0.0813032381        -0.0111204144         0.0820602227        23.4712106343    14 
   44     1         3.8757750000        85.9441808922        37.5833377555        -6.6229392448        -0.0000000000        -0.0853396750         0.0301711160         0.0905160559        23.4217509851    14 
   45     1         3.8757750000        73.2340031999        35.0964882589        -6.6392541269        -0.0000000000        -0.0922247487        -0.0112601995         0.0929096139        23.4191722242    14 
   46     1         1.2919250000        87.7144869883        36.9470729161        -6.6097712976         0.0000000000        -0.0793797759         0.0054277830         0.0795651284        23.4297817180    12 
   47     1         3.8757750000        75.3589075976        32.6609543134        -6.6377348040        -0.0000000000        -0.0845357874        -0.0019861255         0.0845591157        23.5058329954    16 
   48     1         1.2919250000        75.0088755047        34.5043455445        -6.6404410614         0.0000000000        -0.0816986409         0.0078136826         0.0820714418        23.5012989784    14 
   49     1         3.8757750000        89.0891711647        38.1261023421        -6.5703795380        -0.0000000000        -0.1161725572        -0.0388640415         0.1225009255        23.1082198342    16 
   50     1         3.8757750000        76.4190537198        35.7339314134        -6.6449241011        -0.0000000000        -0.0829973835         0.0149418245         0.0843316298        23.5481429953    14 
   51     1         1.2919250000        76.0629717893        37.5881266269        -6.6523648680         0.0000000000        -0.0862100745         0.0349599874         0.0930289077        23.5955188694    14 
   52     1         1.2919250000        78.1709258452        35.0826164450        -6.6345228966         0.0000000000        -0.0954714551        -0.0251320135         0.0987239426        23.3640066907    14 
   53     1         3.8757750000        92.3080580461        38.8077579014        -6.6211928056        -0.0000000000        -0.0731088304         0.0304867298         0.0792107428        23.4455763582    14 
   54     1         1.2919250000        91.9688328298        40.6808373176        -6.6450385564         0.0000000000        -0.0594648073         0.0580973461         0.0831346193        24.7634896669    14 
   55     1         3.8757750000        79.5981805883        36.3025591815        -6.6244014253        -0.0000000000        -0.0796936696        -0.0277166850         0.0843759184        23.2953772842    14 
   56     1         1.2919250000        79.2173392296        38.0672087303        -6.5892332200         0.0000000000        -0.1076657889        -0.0977576533         0.1454251728        23.0659367763    14 
   57     1         1.2919250000        81.3793592839        35.7234605914        -6.6374377196         0.0000000000        -0.0628611710         0.0044710026         0.0630199705        23.5499823809    16 
   58     1         3.8757750000        93.4200470815        41.8812572487        -6.6241673488        -0.0000000000        -0.0197275133         0.0095571945         0.0219206466        25.3981827964    15 
   59     1         3.8757750000        80.6765328501        39.3135918646        -6.5595780023        -0.0000000000        -0.0599491260        -0.0768893980         0.0974980883        22.8167122067    14 
   60     1         1.2919250000        95.1260897887        40.8621678921        -6.3707199040         0.0000000000        -0.0780310031        -0.3821979299         0.3900821645        22.4074254580    14 
   61     1         3.8757750000        82.7890608629        36.9546930801        -6.6223571482        -0.0000000000        -0.0646365496         0.0130479470         0.0659403706        23.4515998439    12 
   62     1         1.2919250000        82.5162324086        38.7983244107        -6.5932043561         0.0000000000         0.0154042354         0.0210532392         0.0260869575        23.5714046740    16 
   63     1         3.8757750000        96.5776549914        42.2323971122        -6.4563137471        -0.0000000000        -0.0379427580        -0.2728589193         0.2754843784        22.8225822324    15 
   64     1         3.8757750000        83.8875500954        40.0702493906        -6.6184255908        -0.0000000000        -0.0247550354         0.0649719399         0.0695281580        24.5737091342    14 
   65     1         1.2919250000        98.3928803368        42.0987562939        -6.6411978968         0.0000000000         0.0129363904         0.2270562397         0.2274244626        25.7945686196    15 
   66     1         1.2919250000        85.6031153395        39.3771663029        -6.5424467804         0.0000000000        -0.0735359883        -0.0133149597         0.0747317183        23.1919379960    14 
   67     1         3.8757750000        86.9820150936        40.6790344099        -6.4996939642        -0.0000000000        -0.1061131918         0.0562944384         0.1201210776        24.0379172023    14 
   68     1         1.2919250000        86.6621800431        42.2949707124        -6.3814058121         0.0000000000        -0.0730790029        -0.2102853191         0.2226217781        24.0524524917    15 
   69     1         1.2919250000        88.7826477708        40.0650048443        -6.5468279252         0.0000000000        -0.0698267116         0.0597273936         0.0918865127        24.3916106718    12 
   70     1         3.8757750000        90.1087300118        40.9515985532        -6.3700471329        -0.0000000000        -0.1552214283        -0.2927672687         0.3313704353        24.0075816924    16 
   71     1         3.8757750000         1.6540319977         0.6257594621        -6.5217461923        -0.0000000000        -0.1103141994        -0.0121060820         0.1109764831        24.0634699893    12 
   72     1         3.8757750000         4.8679475032         0.4691676878        -6.2220571076        -0.0000000000        -0.0722218485         0.4691676878         0.4746939168        22.3977521373    13 
   73     1         1.2919250000         3.3723311510         1.1222424337        -6.6023081673         0.0000000000        -0.1563612431        -0.1491790877         0.2161093208        25.8205680972    15 
   74     1         1.2919250000         6.5982595191         0.6483221507        -6.5875013573         0.0000000000        -0.1062560296         0.0104566065         0.1067693048        24.3881073721    12 
   75     1         1.2919250000         9.6157052476         0.5187216537        -6.2765247017         0.0000000000        -0.2646334558         0.5187216537         0.5823255275        22.5869780058    13 
   76     1         3.8757750000         7.0321111310         2.5649483580        -6.5845517497        -0.0000000000        -0.0252736571         0.0445667539         0.0512342981        24.1221189098    14 
   77     1         3.8757750000        10.1582033619         2.0420444089        -6.4956174571        -0.0000000000        -0.0750045808         0.1432886552         0.1617322660        23.1128028578    14 
   78     1         1.2919250000         8.7123304370         3.3306990055        -6.4888391949         0.0000000000        -0.1094005481         0.1928548806         0.2217238934        22.6843381456    14 
   79     1         3.8757750000        13.2706750813         0.9662524119        -6.6917733128        -0.0000000000        -0.1383560161        -0.3051691095         0.3350680119        26.7456197127    15 
   80     1         1.2919250000        12.0179693784         2.3709617049        -6.6055071001         0.0000000000         0.0204152386        -0.1494198992         0.1508081173        23.8414502296    14 
   81     1         1.2919250000        15.0600258857         2.0213289891        -6.4713290336         0.0000000000        -0.1133514088         0.1225732354         0.1669513100        22.9516180468    16 
   82     1         3.8757750000        23.9335483692         5.0214435686        -6.5943034402        -0.0000000000        -0.0615599105         0.0432883767         0.0752562697        22.9445887575    14 
   83     1         3.8757750000        12.3014530538         4.2674169302        -6.6213162163        -0.0000000000        -0.0489703254        -0.0984334739         0.1099419918        23.6653672957    14 
   84     1         1.2919250000        10.9033043358         5.5474904174        -6.6333290488         0.0000000000        -0.0356420858        -0.0424645187         0.0554400003        23.5947510087    16 
   85     1         3.8757750000        15.3956559973         3.6452898727        -6.5840949726        -0.0000000000        -0.1305905365        -0.1073504403         0.1690503039        23.4203338077    12 
   86     1         1.2919250000        14.0234918677         4.9698759286        -6.6014394336         0.0000000000        -0.0912777086        -0.0082792634         0.0916524211        23.1590515824    14 
   87     1         3.8757750000        18.5605522262         3.1666925401        -6.5637042479        -0.0000000000        -0.1415174623         0.0288484152         0.1444279170        23.0915450570    16 
   88     1         1.2919250000        17.2035488006         4.3284143930        -6.6010923175         0.0000000000        -0.0870439303        -0.0374360111         0.0947528402        23.4487348903    12 
   89     1         1.2919250000        20.3517687351         3.6934725311        -6.6442566029         0.0000000000        -0.1146471505        -0.0591677819         0.1290147105        23.7327871215    14 
   90     1         3.8757750000        14.3799037764         6.7629852096        -6.6333543655        -0.0000000000        -0.0877350393        -0.0498604995         0.1009133615        23.4677821753    14 
   91     1         3.8757750000        17.5301920196         6.1737719082        -6.6340660634        -0.0000000000        -0.1132699507        -0.0277045343         0.1166088460        23.4395962438    14 
   92     1         1.2919250000        16.1413322804         7.4069888705        -6.6220382033         0.0000000000        -0.0906527322        -0.0171431162         0.0922594401        23.4212683467    14 
   93     1         3.8757750000        20.7180707803         5.5647571303        -6.6484830704        -0.0000000000        -0.1012143447        -0.0251978058         0.1043037535        23.5577674571    14 
   94     1         1.2919250000        19.3060652605         6.7793531370        -6.6444709269         0.0000000000        -0.1017429069        -0.0334925721         0.1071138249        23.5013695783    14 
   95     1         1.2919250000        22.4742412514         6.2253419757        -6.6296916631         0.0000000000        -0.1093900706         0.0238655333         0.1119631690        23.2581408067    14 
   96     1         3.8757750000        31.3098699001         9.2322216702        -6.6363115035        -0.0000000000        -0.0954924071        -0.0255713159         0.0988569270        23.3784240854    14 
   97     1         3.8757750000        19.6594143743         8.6301596987        -6.6461376074        -0.0000000000        -0.1012630324        -0.0164300150         0.1025872659        23.6140437785    18 
   98     1         1.2919250000        33.0634041791         9.8640302522        -6.6290392602         0.0000000000        -0.1063043250        -0.0049587726         0.1064199180        23.4879073070    12 
   99     1         3.8757750000        22.8593171171         8.0237108420        -6.6285354695        -0.0000000000        -0.0771834443        -0.0116622751         0.0780595461        23.3212601525    12 
  100     1         1.2919250000        21.4328282715         9.2335378753        -6.6285353910         0.0000000000        -0.0921953323        -0.0242551108         0.0953325217        23.3212598203    12 
  101     1         3.8757750000        26.0492491175         7.3932188002        -6.6290392741        -0.0000000000        -0.0630745986        -0.0309131866         0.0702426515        23.4879074403    12 
  102     1         1.2919250000        24.6327309612         8.6270892951        -6.6461375530         0.0000000000        -0.0681157972        -0.0195004186         0.0708521571        23.6140429753    18 
  103     1         1.2919250000        27.8027834669         8.0250275657        -6.6363115098         0.0000000000        -0.0738864462        -0.0103455514         0.0746072206        23.3784244782    14 
  104     1         3.8757750000        21.8179040146        11.0319067516        -6.6296917225        -0.0000000000        -0.0599888286        -0.0594728996         0.0844729859        23.2581406939    14 
  105     1         3.8757750000        24.9860801150        10.4778957995        -6.6444709809        -0.0000000000        -0.0676358828        -0.0022853372         0.0676744812        23.5013690066    14 
  106     1         1.2919250000        23.5740745332        11.6924916910        -6.6484830889         0.0000000000        -0.0681645070        -0.0100800721         0.0689057898        23.5577664773    14 
  107     1         3.8757750000        28.1508130590         9.8502603675        -6.6220381261        -0.0000000000        -0.0787260935        -0.0187286572         0.0809231759        23.4212677207    14 
  108     1         1.2919250000        26.7619532971        11.0834772302        -6.6340660080         0.0000000000        -0.0561088978        -0.0079024210         0.0566626567        23.4395958283    14 
  109     1         1.2919250000        29.9122414792        10.4942641492        -6.6333543806         0.0000000000        -0.0816438703         0.0140830125         0.0828495793        23.4677824235    14 
  110     1         3.8757750000        38.7608845731        13.5637760920        -6.6442566217        -0.0000000000        -0.0547317616         0.0275884213         0.0612918161        23.7327869128    14 
  111     1         3.8757750000        27.0885964628        12.9288346511        -6.6010922565        -0.0000000000        -0.0823349715         0.0038635770         0.0824255710        23.4487336840    12 
  112     1         1.2919250000        40.5521012682        14.0905563322        -6.5637041715         0.0000000000        -0.0278612635        -0.0568724688         0.0633303064        23.0915440985    16 
  113     1         3.8757750000        30.2686534579        12.2873732652        -6.6014392160        -0.0000000000        -0.0781011310        -0.0263945364         0.0824406345        23.1590505204    14 
  114     1         1.2919250000        28.8964892589        13.6119598503        -6.5840949374         0.0000000000        -0.0387883724         0.0757721796         0.0851232109        23.4203349745    12 
  115     1         3.8757750000        33.3888406857        11.7097587854        -6.6333289394        -0.0000000000        -0.1337370579         0.0071870224         0.1339300338        23.5947504478    16 
  116     1         1.2919250000        31.9906919856        12.9898322203        -6.6213162522         0.0000000000        -0.1204088004         0.0648611462         0.1367671287        23.6653678801    14 
  117     1         1.2919250000        35.1791047330        12.2358050305        -6.5943033344         0.0000000000        -0.1078192076        -0.0779627711         0.1330532796        22.9445872795    14 
  118     1         3.8757750000        44.0526276105        15.2359197577        -6.4713285610        -0.0000000000        -0.0560273152        -0.1341645876         0.1453932482        22.9516148399    16 
  119     1         3.8757750000        32.2741759037        14.8862879436        -6.6055074609        -0.0000000000        -0.1897941216         0.1275728649         0.2286845960        23.8414520773    14 
  120     1         1.2919250000        45.8419783589        16.2909978087        -6.6917733446         0.0000000000        -0.0310227639         0.3093919570         0.3109433951        26.7456244293    15 
  121     1         3.8757750000        35.5798147279        13.9265493396        -6.4888389493        -0.0000000000        -0.0599784521        -0.2208794615         0.2288780269        22.6843358283    14 
  122     1         1.2919250000        34.1339415282        15.2152042797        -6.4956174693         0.0000000000        -0.0943746942        -0.1548800656         0.1813681825        23.1128015150    14 
  123     1         1.2919250000        37.2600336206        14.6922997922        -6.5845515686         0.0000000000        -0.1441057564        -0.0664152865         0.1586740663        24.1221168153    14 
  124     1         3.8757750000        46.6787229082        18.3016150652        -6.6411979552        -0.0000000000         0.4528525460         0.4826945903         0.6618681863        25.7945599355    15 
  125     1         3.8757750000        34.6764411336        16.7385268303        -6.2765243899        -0.0000000000         0.0952556718        -0.4671835534         0.4767956749        22.5869749202    13 
  126     1         1.2919250000        48.4939470819        18.1679731736        -6.4563135421         0.0000000000         0.5037305227        -0.2657434894         0.5695296670        22.8225794704    15 
  127     1         3.8757750000        37.6938861745        16.6089260849        -6.5875008871        -0.0000000000        -0.0631224420         0.0155204891         0.0650025251        24.3881009543    12 
  128     1         1.2919250000        36.8310464899        18.5191130387        -6.6241669437         0.0000000000         0.4855148311         0.7001925639         0.8520529783        25.3981777700    15 
  129     1         3.8757750000        40.9198148103        16.1350065232        -6.6023084339        -0.0000000000        -0.0130169608         0.1534006715         0.1539519642        25.8205713577    15 
  130     1         1.2919250000        39.4241966496        16.7880800961        -6.2220561511         0.0000000000        -0.0971581639        -0.4176302876         0.4287828890        22.3977427968    13 
  131     1         1.2919250000        42.6381125199        16.6314903969        -6.5217465643         0.0000000000        -0.0590654483         0.0380848011         0.0702792946        24.0634701791    12 
  132     1         3.8757750000        53.1027703722        19.7195320953        -6.6450388200        -0.0000000000         1.5838614189         0.0467270611         1.5845505396        24.7634942182    14 
  133     1         3.8757750000        41.4684474854        20.3353650495        -6.5468281955        -0.0000000000         1.5942234325         1.2841858658         2.0471154561        24.3916097513    12 
  134     1         1.2919250000        40.1423663575        19.4487696017        -6.3700479559         0.0000000000         1.6796192622        -0.8513696647         1.8830696142        24.0075868329    16 
  135     1         3.8757750000        43.5889158246        18.1053991946        -6.3814059830        -0.0000000000         0.5388686170        -0.3283174684         0.6310085154        24.0524523617    15 
  136     1         1.2919250000        43.2690807808        19.7213360681        -6.4996938094         0.0000000000         1.6305105308         0.0485310339         1.6312326175        24.0379136185    14 
  137     1         1.2919250000        46.3635450904        20.3301218324        -6.6184254837         0.0000000000         1.5491516859         1.2789426487         2.0088716346        24.5737021682    14 
  138     1         3.8757750000        44.6479798046        21.0232043434        -6.5424468174        -0.0000000000        -0.5192828394         0.0895090998         0.5269407426        23.1919357399    14 
  139     1         3.8757750000        49.9455128671        19.5382020144        -6.3707201895        -0.0000000000         1.6024270685        -0.7619372520         1.7743508350        22.4074241931    14 
  140     1         1.2919250000        49.5745619734        21.0867784298        -6.5595782124         0.0000000000        -0.5328700223         0.1530831861         0.5544230538        22.8167108452    14 
