ITEM: TIMESTEP
305
ITEM: NUMBER OF ATOMS
140
ITEM: BOX BOUNDS xy xz yz pp pp pp
0.0000000000000000e+000 5.1677000000000124e+000 2.0000000000000002e-015
0.0000000000000000e+000 1.0077945477432876e+002 1.1000000000000000e-014
0.0000000000000000e+000 4.3143121575999999e+001 8.5958946719328750e+001
ITEM: ATOMS id type x y z c_peatom c_datom[1] c_datom[2] c_datom[3] c_datom[4] c_voratom[1] c_voratom[2] 
    1     1         3.8757750000        47.7348615479        21.6020461532        -6.5932044545        -0.0000000000        -0.1847811634         0.0304853655         0.1872790321        23.5714030510    16 
    2     1         1.2919250000        47.4620327889        23.4456773835        -6.6223571771         0.0000000000        -0.1047406830        -0.0246391579         0.1075997155        23.4515990013    12 
    3     1         3.8757750000        63.6922425471        24.6769096159        -6.6374377446        -0.0000000000        -0.1065159376        -0.0324952967         0.1113624230        23.5499815887    16 
    4     1         3.8757750000        51.0337547333        22.3331612948        -6.5892331998        -0.0000000000        -0.0617111327         0.1237349628         0.1382700435        23.0659364666    14 
    5     1         1.2919250000        50.6529131115        24.0978106484        -6.6244014215         0.0000000000        -0.0896835151         0.0058682565         0.0898752987        23.2953769997    14 
    6     1         1.2919250000        52.7635440261        21.5926116442        -6.6211929490         0.0000000000        -0.0962680369         0.0210508564         0.0985427495        23.4455772384    14 
    7     1         3.8757750000        52.0801677152        25.3177535153        -6.6345227976        -0.0000000000        -0.0739058690        -0.0064475855         0.0741865812        23.3640059208    14 
    8     1         3.8757750000        54.1881219682        22.8122432043        -6.6523648336        -0.0000000000        -0.0831670524        -0.0307391049         0.0886659527        23.5955185257    14 
    9     1         1.2919250000        53.8320397161        24.6664384266        -6.6449241288         0.0000000000        -0.0863800651        -0.0429664860         0.0964760829        23.5481432090    14 
   10     1         1.2919250000        55.9824305866        22.2742675010        -6.5703796329         0.0000000000        -0.0532046310         0.0648411691         0.0838755624        23.1082201851    16 
   11     1         3.8757750000        55.2422178463        25.8960244367        -6.6404410328        -0.0000000000        -0.0876788925        -0.0413867551         0.0969559266        23.5012987421    14 
   12     1         1.2919250000        69.7126938198        27.7394156102        -6.6377348015         0.0000000000        -0.0848417348        -0.0336216201         0.0912607982        23.5058327099    16 
   13     1         3.8757750000        57.3571146237        23.4532972803        -6.6097712982        -0.0000000000        -0.0899975516        -0.0170192612         0.0915926556        23.4297812838    12 
   14     1         1.2919250000        57.0170901665        25.3038817787        -6.6392541265         0.0000000000        -0.0771527694        -0.0203193220         0.0797836116        23.4191719635    14 
   15     1         1.2919250000        59.1274207240        22.8170326981        -6.6229392444         0.0000000000        -0.0840376483        -0.0259496110         0.0879528774        23.4217499653    14 
   16     1         3.8757750000        71.1209381721        28.9709407049        -6.6348617999        -0.0000000000        -0.0880743400        -0.0247520697         0.0914863614        23.4712107322    14 
   17     1         3.8757750000        58.4151803235        26.5277419442        -6.6303569792        -0.0000000000        -0.0905395701        -0.0219740355         0.0931679773        23.4345140612    14 
   18     1         1.2919250000        58.0692548093        28.3641338019        -6.6349227141         0.0000000000        -0.0835958448        -0.0202726950         0.0860188784        23.4510413562    14 
   19     1         3.8757750000        60.5194786933        24.0794486346        -6.6370663848        -0.0000000000        -0.1034566366        -0.0124937573         0.1042082993        23.3381736461    14 
   20     1         1.2919250000        60.1817280719        25.9062422199        -6.6342572290         0.0000000000        -0.0883380187        -0.0311689719         0.0936755590        23.4692465799    14 
   21     1         3.8757750000        59.4779857819        29.5924331372        -6.6346334173        -0.0000000000        -0.0863418299        -0.0145007677         0.0875510357        23.4713372071    14 
   22     1         3.8757750000        61.5910711013        27.1377155739        -6.6353517840        -0.0000000000        -0.0904719468        -0.0238001499         0.0935500951        23.4530360007    14 
   23     1         1.2919250000        61.2426217355        28.9728043589        -6.6339949198         0.0000000000        -0.0860520733        -0.0228884156         0.0890440278        23.4579276380    14 
   24     1         1.2919250000        63.3546404905        26.5210902544        -6.6315700892         0.0000000000        -0.0912487547        -0.0286257253         0.0956335055        23.4782866649    12 
   25     1         3.8757750000        62.6529836851        30.1997232424        -6.6347682011        -0.0000000000        -0.0871670813        -0.0184272591         0.0890935684        23.4637619432    14 
   26     1         1.2919250000        77.1208986416        32.0340717112        -6.6346787346         0.0000000000        -0.0868909404        -0.0176702132         0.0886694534        23.4443309058    14 
   27     1         3.8757750000        64.7673537462        27.7469402849        -6.6361826176        -0.0000000000        -0.0900124567        -0.0260969454         0.0937192238        23.5127259586    16 
   28     1         1.2919250000        64.4201701701        29.5868891839        -6.6341692649         0.0000000000        -0.0843267933        -0.0200447210         0.0866764035        23.4856012284    14 
   29     1         1.2919250000        66.5387160040        27.1419847163        -6.6324517907         0.0000000000        -0.0829963959        -0.0195310075         0.0852634857        23.4389069519    12 
   30     1         3.8757750000        78.5328845104        33.2583855555        -6.6324518043        -0.0000000000        -0.0863820293        -0.0157469954         0.0878055969        23.4389071625    12 
   31     1         3.8757750000        65.8309222512        30.8134809736        -6.6341692855        -0.0000000000        -0.0850516698        -0.0158728003         0.0865201267        23.4856014097    14 
   32     1         1.2919250000        65.4837387041        32.6534298950        -6.6361826016         0.0000000000        -0.0793659775        -0.0095105439         0.0799337778        23.5127259823    16 
   33     1         3.8757750000        67.9507019084        28.3662985050        -6.6346787416        -0.0000000000        -0.0824874491        -0.0181079918         0.0844516348        23.4443308150    14 
   34     1         1.2919250000        67.5981087693        30.2006469386        -6.6347681959         0.0000000000        -0.0822113488        -0.0175035629         0.0840540338        23.4637618434    14 
   35     1         3.8757750000        81.7169599858        33.8792799037        -6.6315700982        -0.0000000000        -0.0781297085        -0.0060486858         0.0783634988        23.4782868482    12 
   36     1         3.8757750000        69.0084707276        31.4275658024        -6.6339949159        -0.0000000000        -0.0833263481        -0.0129840101         0.0843318730        23.4579275634    14 
   37     1         1.2919250000        68.6600213750        33.2626545603        -6.6353517966         0.0000000000        -0.0789064613        -0.0114779905         0.0797369042        23.4530361223    14 
   38     1         1.2919250000        70.7731067135        30.8079370514        -6.6346334372         0.0000000000        -0.0830365593        -0.0214167225         0.0857539864        23.4713373073    14 
   39     1         3.8757750000        70.0693644514        34.4941278374        -6.6342572287        -0.0000000000        -0.0810403425        -0.0024040245         0.0810759918        23.4692463093    14 
   40     1         1.2919250000        84.5521219228        36.3209214612        -6.6370663981         0.0000000000        -0.0659216868        -0.0093544053         0.0665820823        23.3381736364    14 
   41     1         3.8757750000        72.1818377088        32.0362363727        -6.6349226974        -0.0000000000        -0.0857825216        -0.0155055518         0.0871726055        23.4510412973    14 
   42     1         1.2919250000        71.8359122239        33.8726282461        -6.6303570177         0.0000000000        -0.0788387671        -0.0127003433         0.0798551809        23.4345142123    14 
   43     1         1.2919250000        73.9506623859        31.4294294940        -6.6348618090         0.0000000000        -0.0813040415        -0.0111203185         0.0820610056        23.4712108718    14 
   44     1         3.8757750000        85.9441799891        37.5833372043        -6.6229392678        -0.0000000000        -0.0853405781         0.0301705648         0.0905167236        23.4217493878    14 
   45     1         3.8757750000        73.2340024631        35.0964884168        -6.6392541097        -0.0000000000        -0.0922254855        -0.0112600417         0.0929103262        23.4191719177    14 
   46     1         1.2919250000        87.7144861099        36.9470728294        -6.6097713388         0.0000000000        -0.0793806543         0.0054276963         0.0795659988        23.4297811387    12 
   47     1         3.8757750000        75.3589067513        32.6609546174        -6.6377347906        -0.0000000000        -0.0845366337        -0.0019858215         0.0845599546        23.5058327642    16 
   48     1         1.2919250000        75.0088747533        34.5043457943        -6.6404410029         0.0000000000        -0.0816993924         0.0078139324         0.0820722136        23.5012988883    14 
   49     1         3.8757750000        89.0891702015        38.1261029026        -6.5703797635        -0.0000000000        -0.1161735204        -0.0388634810         0.1225016612        23.1082209235    16 
   50     1         3.8757750000        76.4190528596        35.7339319234        -6.6449241251        -0.0000000000        -0.0829982436         0.0149423345         0.0843325667        23.5481437824    14 
   51     1         1.2919250000        76.0629707675        37.5881271750        -6.6523648063         0.0000000000        -0.0862110963         0.0349605355         0.0930300606        23.5955184109    14 
   52     1         1.2919250000        78.1709248411        35.0826167617        -6.6345227607         0.0000000000        -0.0954724592        -0.0251316967         0.0987248330        23.3640060850    14 
   53     1         3.8757750000        92.3080564867        38.8077590789        -6.6211931793        -0.0000000000        -0.0731103897         0.0304879074         0.0792126353        23.4455789119    14 
   54     1         1.2919250000        91.9688315561        40.6808379986        -6.6450387234         0.0000000000        -0.0594660810         0.0580980271         0.0831360063        24.7634940815    14 
   55     1         3.8757750000        79.5981793398        36.3025596863        -6.6244014256        -0.0000000000        -0.0796949181        -0.0277161802         0.0843769318        23.2953778484    14 
   56     1         1.2919250000        79.2173378910        38.0672091750        -6.5892333936         0.0000000000        -0.1076671275        -0.0977572086         0.1454258649        23.0659378304    14 
   57     1         1.2919250000        81.3793580088        35.7234605682        -6.6374377517         0.0000000000        -0.0628624462         0.0044709793         0.0630212408        23.5499819055    16 
   58     1         3.8757750000        93.4200471171        41.8812571423        -6.6241670064        -0.0000000000        -0.0197274777         0.0095570881         0.0219205682        25.3981789273    15 
   59     1         3.8757750000        80.6765318253        39.3135918207        -6.5595781561        -0.0000000000        -0.0599501509        -0.0768894419         0.0974987531        22.8167114291    14 
   60     1         1.2919250000        95.1260889158        40.8621682354        -6.3707201274         0.0000000000        -0.0780318759        -0.3821975865         0.3900820027        22.4074254926    14 
   61     1         3.8757750000        82.7890597729        36.9546926104        -6.6223571654        -0.0000000000        -0.0646376396         0.0130474773         0.0659413461        23.4515986088    12 
   62     1         1.2919250000        82.5162310984        38.7983239862        -6.5932044634         0.0000000000         0.0154029253         0.0210528146         0.0260858412        23.5714032428    16 
   63     1         3.8757750000        96.5776548888        42.2323969878        -6.4563136284        -0.0000000000        -0.0379428606        -0.2728590437         0.2754845157        22.8225813731    15 
   64     1         3.8757750000        83.8875488807        40.0702484119        -6.6184254422        -0.0000000000        -0.0247562500         0.0649709613         0.0695276759        24.5737033862    14 
   65     1         1.2919250000        98.3928796737        42.0987553326        -6.6411978894         0.0000000000         0.0129357273         0.2270552784         0.2274234652        25.7945639227    15 
   66     1         1.2919250000        85.6031142026        39.3771657856        -6.5424468604         0.0000000000        -0.0735371252        -0.0133154770         0.0747329293        23.1919365918    14 
   67     1         3.8757750000        86.9820132178        40.6790339343        -6.4996937501        -0.0000000000        -0.1061150676         0.0562939628         0.1201225117        24.0379144137    14 
   68     1         1.2919250000        86.6621789336        42.2949707257        -6.3814059395         0.0000000000        -0.0730801124        -0.2102853057         0.2226221297        24.0524526757    15 
   69     1         1.2919250000        88.7826465069        40.0650047444        -6.5468280199         0.0000000000        -0.0698279755         0.0597272937         0.0918874082        24.3916081423    12 
   70     1         3.8757750000        90.1087277126        40.9516004017        -6.3700479875        -0.0000000000        -0.1552237275        -0.2927654203         0.3313698793        24.0075876322    16 
   71     1         3.8757750000         1.6540342020         0.6257584005        -6.5217465364        -0.0000000000        -0.1103119950        -0.0121071437         0.1109744078        24.0634710409    12 
   72     1         3.8757750000         4.8679499968         0.4691685838        -6.2220563409        -0.0000000000        -0.0722193549         0.4691685838         0.4746944230        22.3977450092    13 
   73     1         1.2919250000         3.3723323189         1.1222423320        -6.6023083445         0.0000000000        -0.1563600752        -0.1491791894         0.2161085460        25.8205711184    15 
   74     1         1.2919250000         6.5982610675         0.6483226045        -6.5875010629         0.0000000000        -0.1062544812         0.0104570604         0.1067678083        24.3881039277    12 
   75     1         1.2919250000         9.6157063702         0.5187217580        -6.2765243660         0.0000000000        -0.2646323331         0.5187217580         0.5823251102        22.5869752451    13 
   76     1         3.8757750000         7.0321130693         2.5649490090        -6.5845515934        -0.0000000000        -0.0252717189         0.0445674049         0.0512339083        24.1221170447    14 
   77     1         3.8757750000        10.1582051079         2.0420443963        -6.4956174362        -0.0000000000        -0.0750028348         0.1432886427         0.1617314452        23.1128024233    14 
   78     1         1.2919250000         8.7123321077         3.3306992143        -6.4888390799         0.0000000000        -0.1093988775         0.1928550894         0.2217232507        22.6843367567    14 
   79     1         3.8757750000        13.2706764979         0.9662511353        -6.6917733659        -0.0000000000        -0.1383545995        -0.3051703861         0.3350685897        26.7456243096    15 
   80     1         1.2919250000        12.0179710108         2.3709610642        -6.6055072532         0.0000000000         0.0204168710        -0.1494205399         0.1508089731        23.8414513439    14 
   81     1         1.2919250000        15.0600272956         2.0213288135        -6.4713287571         0.0000000000        -0.1133499988         0.1225730598         0.1669502238        22.9516165933    16 
   82     1         3.8757750000        23.9335501141         5.0214437192        -6.5943033545        -0.0000000000        -0.0615581656         0.0432885272         0.0752549290        22.9445877303    14 
   83     1         3.8757750000        12.3014547177         4.2674165072        -6.6213162157        -0.0000000000        -0.0489686615        -0.0984338969         0.1099416293        23.6653678681    14 
   84     1         1.2919250000        10.9033060557         5.5474900976        -6.6333289757         0.0000000000        -0.0356403660        -0.0424648384         0.0554391395        23.5947507405    16 
   85     1         3.8757750000        15.3956575062         3.6452890167        -6.5840949544        -0.0000000000        -0.1305890277        -0.1073512962         0.1690496819        23.4203350700    12 
   86     1         1.2919250000        14.0234933473         4.9698755338        -6.6014392889         0.0000000000        -0.0912762290        -0.0082796582         0.0916509832        23.1590509565    14 
   87     1         3.8757750000        18.5605535656         3.1666925378        -6.5637041265        -0.0000000000        -0.1415161229         0.0288484130         0.1444266041        23.0915445080    16 
   88     1         1.2919250000        17.2035501864         4.3284141274        -6.6010922518         0.0000000000        -0.0870425445        -0.0374362767         0.0947516720        23.4487340184    12 
   89     1         1.2919250000        20.3517702217         3.6934726999        -6.6442566260         0.0000000000        -0.1146456639        -0.0591676130         0.1290133120        23.7327874030    14 
   90     1         3.8757750000        14.3799052895         6.7629847037        -6.6333543698        -0.0000000000        -0.0877335262        -0.0498610054         0.1009122959        23.4677825892    14 
   91     1         3.8757750000        17.5301934001         6.1737716180        -6.6340660270        -0.0000000000        -0.1132685702        -0.0277048244         0.1166075739        23.4395961369    14 
   92     1         1.2919250000        16.1413336894         7.4069885777        -6.6220381472         0.0000000000        -0.0906513233        -0.0171434090         0.0922581102        23.4212679345    14 
   93     1         3.8757750000        20.7180722908         5.5647571986        -6.6484830623        -0.0000000000        -0.1012128342        -0.0251977375         0.1043022712        23.5577668002    14 
   94     1         1.2919250000        19.3060666154         6.7793530088        -6.6444709743         0.0000000000        -0.1017415519        -0.0334927002         0.1071125780        23.5013692929    14 
   95     1         1.2919250000        22.4742427878         6.2253419779        -6.6296917413         0.0000000000        -0.1093885342         0.0238655354         0.1119616684        23.2581409919    14 
   96     1         3.8757750000        31.3098713995         9.2322213452        -6.6363114907        -0.0000000000        -0.0954909076        -0.0255716410         0.0988555626        23.3784241896    14 
   97     1         3.8757750000        19.6594157929         8.6301595229        -6.6461375664        -0.0000000000        -0.1012616139        -0.0164301908         0.1025858938        23.6140431441    18 
   98     1         1.2919250000        33.0634056681         9.8640300455        -6.6290392611         0.0000000000        -0.1063028361        -0.0049589792         0.1064184403        23.4879072903    12 
   99     1         3.8757750000        22.8593186097         8.0237109161        -6.6285354233        -0.0000000000        -0.0771819517        -0.0116622010         0.0780580591        23.3212599046    12 
  100     1         1.2919250000        21.4328296287         9.2335377913        -6.6285354347         0.0000000000        -0.0921939750        -0.0242551948         0.0953312305        23.3212599679    12 
  101     1         3.8757750000        26.0492506891         7.3932186193        -6.6290392553        -0.0000000000        -0.0630730270        -0.0309133674         0.0702413198        23.4879072418    12 
  102     1         1.2919250000        24.6327324657         8.6270891074        -6.6461375731         0.0000000000        -0.0681142927        -0.0195006062         0.0708507623        23.6140431534    18 
  103     1         1.2919250000        27.8027849675         8.0250272195        -6.6363114925         0.0000000000        -0.0738849456        -0.0103458976         0.0746057825        23.3784241094    14 
  104     1         3.8757750000        21.8179054538        11.0319067252        -6.6296917354        -0.0000000000        -0.0599873894        -0.0594729259         0.0844719824        23.2581411014    14 
  105     1         3.8757750000        24.9860816345        10.4778956219        -6.6444709573        -0.0000000000        -0.0676343633        -0.0022855148         0.0676729686        23.5013692547    14 
  106     1         1.2919250000        23.5740759629        11.6924914351        -6.6484830633         0.0000000000        -0.0681630773        -0.0100803279         0.0689044129        23.5577669451    14 
  107     1         3.8757750000        28.1508146414         9.8502599947        -6.6220381672        -0.0000000000        -0.0787245111        -0.0187290301         0.0809217227        23.4212679638    14 
  108     1         1.2919250000        26.7619548622        11.0834769026        -6.6340660385         0.0000000000        -0.0561073327        -0.0079027486         0.0566611526        23.4395959323    14 
  109     1         1.2919250000        29.9122430179        10.4942638208        -6.6333543709         0.0000000000        -0.0816423316         0.0140826841         0.0828480073        23.4677822629    14 
  110     1         3.8757750000        38.7608860960        13.5637759704        -6.6442566131        -0.0000000000        -0.0547302387         0.0275882998         0.0612904014        23.7327871250    14 
  111     1         3.8757750000        27.0885980919        12.9288343868        -6.6010922895        -0.0000000000        -0.0823333424         0.0038633127         0.0824239313        23.4487342647    12 
  112     1         1.2919250000        40.5521027058        14.0905560571        -6.5637041949         0.0000000000        -0.0278598259        -0.0568727439         0.0633299210        23.0915445785    16 
  113     1         3.8757750000        30.2686549821        12.2873730437        -6.6014393434        -0.0000000000        -0.0780996068        -0.0263947580         0.0824392614        23.1590509958    14 
  114     1         1.2919250000        28.8964907678        13.6119592824        -6.5840949560         0.0000000000        -0.0387868635         0.0757716118         0.0851220179        23.4203338900    12 
  115     1         3.8757750000        33.3888422755        11.7097585407        -6.6333289895        -0.0000000000        -0.1337354681         0.0071867777         0.1339284331        23.5947507741    16 
  116     1         1.2919250000        31.9906936044        12.9898321140        -6.6213162030         0.0000000000        -0.1204071816         0.0648610399         0.1367656531        23.6653674710    14 
  117     1         1.2919250000        35.1791062587        12.2358050683        -6.5943034090         0.0000000000        -0.1078176819        -0.0779627333         0.1330520211        22.9445883136    14 
  118     1         3.8757750000        44.0526289835        15.2359198308        -6.4713288870        -0.0000000000        -0.0560259423        -0.1341645145         0.1453926516        22.9516169436    16 
  119     1         3.8757750000        32.2741773462        14.8862874808        -6.6055072148        -0.0000000000        -0.1897926791         0.1275724021         0.2286831407        23.8414512286    14 
  120     1         1.2919250000        45.8419796243        16.2909969920        -6.6917733000         0.0000000000        -0.0310214985         0.3093911402         0.3109424561        26.7456214523    15 
  121     1         3.8757750000        35.5798162036        13.9265496371        -6.4888391473        -0.0000000000        -0.0599769764        -0.2208791639         0.2288773531        22.6843374296    14 
  122     1         1.2919250000        34.1339432385        15.2152044106        -6.4956175099         0.0000000000        -0.0943729839        -0.1548799347         0.1813671808        23.1128029285    14 
  123     1         1.2919250000        37.2600354065        14.6922998445        -6.5845516208         0.0000000000        -0.1441039706        -0.0664152342         0.1586724225        24.1221174317    14 
  124     1         3.8757750000        46.6787222211        18.3016146960        -6.6411979353        -0.0000000000         0.4528518589         0.4826942212         0.6618674469        25.7945647623    15 
  125     1         3.8757750000        34.6764418705        16.7385270800        -6.2765246201        -0.0000000000         0.0952564087        -0.4671833037         0.4767955774        22.5869768526    13 
  126     1         1.2919250000        48.4939468025        18.1679732773        -6.4563136218         0.0000000000         0.5037302433        -0.2657433856         0.5695293715        22.8225800289    15 
  127     1         3.8757750000        37.6938873349        16.6089261695        -6.5875011967        -0.0000000000        -0.0631212816         0.0155205736         0.0650014184        24.3881052479    12 
  128     1         1.2919250000        36.8310464999        18.5191127708        -6.6241672624         0.0000000000         0.4855148410         0.7001922959         0.8520527637        25.3981820554    15 
  129     1         3.8757750000        40.9198158021        16.1350062349        -6.6023082419        -0.0000000000        -0.0130159690         0.1534003831         0.1539515930        25.8205692736    15 
  130     1         1.2919250000        39.4241987013        16.7880803968        -6.2220567541         0.0000000000        -0.0971561122        -0.4176299870         0.4287821313        22.3977489288    13 
  131     1         1.2919250000        42.6381143292        16.6314896580        -6.5217463030         0.0000000000        -0.0590636389         0.0380840622         0.0702773736        24.0634700986    12 
  132     1         3.8757750000        53.1027692571        19.7195325223        -6.6450386977        -0.0000000000         1.5838603038         0.0467274881         1.5845494376        24.7634910457    14 
  133     1         3.8757750000        41.4684462958        20.3353651720        -6.5468280536        -0.0000000000         1.5942222429         1.2841859883         2.0471146066        24.3916109803    12 
  134     1         1.2919250000        40.1423644236        19.4487707787        -6.3700474449         0.0000000000         1.6796173283        -0.8513684877         1.8830673571        24.0075836579    16 
  135     1         3.8757750000        43.5889146230        18.1053995532        -6.3814058937        -0.0000000000         0.5388674155        -0.3283171097         0.6310073027        24.0524531085    15 
  136     1         1.2919250000        43.2690791548        19.7213359528        -6.4996938841         0.0000000000         1.6305089049         0.0485309186         1.6312309888        24.0379154217    14 
  137     1         1.2919250000        46.3635438668        20.3301213744        -6.6184256224         0.0000000000         1.5491504622         1.2789421907         2.0088703994        24.5737069494    14 
  138     1         3.8757750000        44.6479785709        21.0232042560        -6.5424467770        -0.0000000000        -0.5192840731         0.0895090123         0.5269419436        23.1919371574    14 
  139     1         3.8757750000        49.9455121121        19.5382023251        -6.3707199455        -0.0000000000         1.6024263135        -0.7619369413         1.7743500197        22.4074241348    14 
  140     1         1.2919250000        49.5745609942        21.0867783266        -6.5595780784         0.0000000000        -0.5328710015         0.1530830829         0.5544239664        22.8167113951    14 
