ITEM: TIMESTEP
100
ITEM: NUMBER OF ATOMS
140
ITEM: BOX BOUNDS xy xz yz pp pp pp
0.0000000000000000e+000 5.1677000000000124e+000 2.0000000000000002e-015
0.0000000000000000e+000 1.0077945477432876e+002 1.1000000000000000e-014
0.0000000000000000e+000 4.3143121575999999e+001 8.5958946719328750e+001
ITEM: ATOMS id type x y z c_peatom c_datom[1] c_datom[2] c_datom[3] c_datom[4] c_voratom[1] c_voratom[2] 
    1     1         3.8757750000        47.6878180996        21.5996814760        -6.5931010757        -0.0000000000        -0.2318246117         0.0281206882         0.2335239253        23.5807962049    16 
    2     1         1.2919250000        47.4105826727        23.4385458635        -6.6227521129        -0.0000000000        -0.1561907992        -0.0317706780         0.1593892774        23.4789775263    12 
    3     1         3.8757750000        63.6372513203        24.6792423028        -6.6369140296         0.0000000000        -0.1615071643        -0.0301626099         0.1642995653        23.5470377727    16 
    4     1         3.8757750000        50.9844915970        22.3456265426        -6.5817191098        -0.0000000000        -0.1109742690         0.1362002107         0.1756866124        23.0286991150    14 
    5     1         1.2919250000        50.5964315339        24.1047056279        -6.6241053118        -0.0000000000        -0.1461650927         0.0127632360         0.1467212818        23.2700000778    14 
    6     1         1.2919250000        52.7063082550        21.6120570879        -6.6120684190         0.0000000000        -0.1535038080         0.0404963001         0.1587556909        23.4024603679    14 
    7     1         3.8757750000        52.0282341822        25.3234889062        -6.6358331463        -0.0000000000        -0.1258394021        -0.0007121946         0.1258414174        23.3635528881    14 
    8     1         3.8757750000        54.1431582788        22.8193134298        -6.6531873577         0.0000000000        -0.1281307419        -0.0236688794         0.1302985144        23.6103560619    14 
    9     1         1.2919250000        53.7802970878        24.6721174411        -6.6449381213        -0.0000000000        -0.1381226934        -0.0372874715         0.1430672359        23.5339779919    14 
   10     1         1.2919250000        55.9376759646        22.2827219783        -6.5650439156        -0.0000000000        -0.0979592531         0.0732956464         0.1223448693        23.0880704141    16 
   11     1         3.8757750000        55.1919836241        25.8983618948        -6.6417126253         0.0000000000        -0.1379131148        -0.0390492970         0.1433348347        23.5035335825    14 
   12     1         1.2919250000        69.6574655907        27.7416845000        -6.6382381964        -0.0000000000        -0.1400699638        -0.0313527303         0.1435360180        23.5115307183    16 
   13     1         3.8757750000        57.3101808556        23.4503794552        -6.6080531113         0.0000000000        -0.1369313197        -0.0199370863         0.1383751196        23.4405049673    12 
   14     1         1.2919250000        56.9673569906        25.3047373313        -6.6396927734        -0.0000000000        -0.1268859453        -0.0194637695         0.1283700956        23.4267453313    14 
   15     1         1.2919250000        59.0803895720        22.8072979634        -6.6216343999         0.0000000000        -0.1310688004        -0.0356843458         0.1358396222        23.4500143753    14 
   16     1         3.8757750000        71.0655113905        28.9725529548        -6.6344442058         0.0000000000        -0.1435011217        -0.0231398197         0.1453548182        23.4723396541    12 
   17     1         3.8757750000        58.3630317208        26.5282038604        -6.6289191611        -0.0000000000        -0.1426881728        -0.0215121194         0.1443006789        23.4367110500    14 
   18     1         1.2919250000        58.0138248437        28.3650543750        -6.6358524290        -0.0000000000        -0.1390258104        -0.0193521219         0.1403662373        23.4624783381    14 
   19     1         3.8757750000        60.4688325203        24.0776245068        -6.6361570446         0.0000000000        -0.1541028097        -0.0143178851         0.1547665267        23.3433947761    14 
   20     1         1.2919250000        60.1285742694        25.9030272819        -6.6343445971        -0.0000000000        -0.1414918212        -0.0343839100         0.1456097137        23.4874763471    14 
   21     1         3.8757750000        59.4218168569        29.5948856754        -6.6337636760        -0.0000000000        -0.1425107549        -0.0120482295         0.1430191424        23.4708260459    16 
   22     1         3.8757750000        61.5356173727        27.1397202538        -6.6348037791        -0.0000000000        -0.1459256755        -0.0217954700         0.1475443841        23.4542877385    14 
   23     1         1.2919250000        61.1852883553        28.9740253722        -6.6339296031         0.0000000000        -0.1433854535        -0.0216674023         0.1450133256        23.4630836740    14 
   24     1         1.2919250000        63.2975232885        26.5220552787        -6.6311348154         0.0000000000        -0.1483659567        -0.0276607010         0.1509224023        23.4777333488    12 
   25     1         3.8757750000        62.5949469447        30.2042086343        -6.6352030404        -0.0000000000        -0.1452038217        -0.0139418672         0.1458716062        23.4718018706    12 
   26     1         1.2919250000        77.0609755790        32.0376955377        -6.6335988915         0.0000000000        -0.1468140030        -0.0140463868         0.1474844143        23.4439516258    16 
   27     1         3.8757750000        64.7110076297        27.7500675604        -6.6370594109        -0.0000000000        -0.1463585732        -0.0229696698         0.1481500512        23.5211819913    16 
   28     1         1.2919250000        64.3608457547        29.5889215532        -6.6331517959        -0.0000000000        -0.1436512087        -0.0180123516         0.1447760843        23.4820937960    14 
   29     1         1.2919250000        66.4821595679        27.1456921826        -6.6314132132         0.0000000000        -0.1395528320        -0.0158235413         0.1404470625        23.4318420003    12 
   30     1         3.8757750000        78.4692652203        33.2678993019        -6.6340719797        -0.0000000000        -0.1500013193        -0.0062332489         0.1501307737        23.4598152206    12 
   31     1         3.8757750000        65.7702571599        30.8175746130        -6.6352638262         0.0000000000        -0.1457167612        -0.0117791609         0.1461920761        23.4961905130    16 
   32     1         1.2919250000        65.4189408206        32.6569920889        -6.6345748949        -0.0000000000        -0.1441638610        -0.0059483500         0.1442865264        23.5069954255    14 
   33     1         3.8757750000        67.8948998478        28.3693022364        -6.6351893004         0.0000000000        -0.1382895097        -0.0151042604         0.1391119232        23.4485029443    16 
   34     1         1.2919250000        67.5377715518        30.2027367133        -6.6343269640         0.0000000000        -0.1425485663        -0.0154137881         0.1433794916        23.4632829100    12 
   35     1         3.8757750000        81.6488979019        33.8829758002        -6.6323191050         0.0000000000        -0.1461917925        -0.0023527893         0.1462107240        23.4914646780    14 
   36     1         3.8757750000        68.9476420275        31.4284054000        -6.6338954547        -0.0000000000        -0.1441550482        -0.0121444125         0.1446656997        23.4578915993    14 
   37     1         1.2919250000        68.5934128196        33.2631942666        -6.6363095149         0.0000000000        -0.1455150167        -0.0109382843         0.1459255500        23.4603296897    14 
   38     1         1.2919250000        70.7133877090        30.8093206980        -6.6359517648         0.0000000000        -0.1427555637        -0.0200330759         0.1441543447        23.4821637940    16 
   39     1         3.8757750000        70.0064432479        34.4869489584        -6.6341269744         0.0000000000        -0.1439615460        -0.0095829035         0.1442801399        23.4430994212    12 
   40     1         1.2919250000        84.4824089814        36.3145704762        -6.6381457528        -0.0000000000        -0.1356346282        -0.0157053903         0.1365408790        23.3336845687    16 
   41     1         3.8757750000        72.1238500945        32.0363187929        -6.6334994384        -0.0000000000        -0.1437701358        -0.0154231315         0.1445950378        23.4441548801    12 
   42     1         1.2919250000        71.7741275235        33.8710056334        -6.6331627943        -0.0000000000        -0.1406234675        -0.0143229561         0.1413510052        23.4428866707    16 
   43     1         1.2919250000        73.8923929490        31.4313816500        -6.6352321717         0.0000000000        -0.1395734784        -0.0091681625         0.1398742688        23.4784539301    12 
   44     1         3.8757750000        85.8805653031        37.5624048493        -6.6237943835         0.0000000000        -0.1489552641         0.0092382098         0.1492414662        23.3597856537    14 
   45     1         3.8757750000        73.1766662455        35.0972044737        -6.6374509792        -0.0000000000        -0.1495617031        -0.0105439848         0.1499329138        23.4115188228    14 
   46     1         1.2919250000        87.6529636181        36.9384217183        -6.6132858728        -0.0000000000        -0.1409031461        -0.0032234148         0.1409400120        23.4154728781    12 
   47     1         3.8757750000        75.3004048057        32.6661003967        -6.6369857535        -0.0000000000        -0.1430385793         0.0031599578         0.1430734794        23.5083396802    16 
   48     1         1.2919250000        74.9503617828        34.5077718806        -6.6379926395        -0.0000000000        -0.1402123628         0.0112400187         0.1406621651        23.5060151515    14 
   49     1         3.8757750000        89.0280455633        38.1440527895        -6.5797533158         0.0000000000        -0.1772981585        -0.0209135942         0.1785273521        23.1600855118    16 
   50     1         3.8757750000        76.3552369429        35.7488463504        -6.6451457578        -0.0000000000        -0.1468141604         0.0298567616         0.1498193042        23.5941770647    14 
   51     1         1.2919250000        76.0009280765        37.6041533383        -6.6492872364        -0.0000000000        -0.1482537874         0.0509866988         0.1567763660        23.5723958549    14 
   52     1         1.2919250000        78.1059138439        35.0927258873        -6.6307390272         0.0000000000        -0.1604834564        -0.0150225712         0.1611850409        23.3717458455    14 
   53     1         3.8757750000        92.2197751075        38.8536669538        -6.6400848074         0.0000000000        -0.1613917689         0.0763957823         0.1785598461        23.5993804223    14 
   54     1         1.2919250000        91.8930613425        40.7054745630        -6.6465570201        -0.0000000000        -0.1352362946         0.0827345915         0.1585366456        25.0042671390    14 
   55     1         3.8757750000        79.5216923963        36.3204069310        -6.6234166300        -0.0000000000        -0.1561818616        -0.0098689355         0.1564933538        23.3514260677    14 
   56     1         1.2919250000        79.1439135534        38.0911978147        -6.6015001092        -0.0000000000        -0.1810914650        -0.0737685689         0.1955400738        23.1495906619    14 
   57     1         1.2919250000        81.3050327549        35.7279694466        -6.6385925968         0.0000000000        -0.1371877000         0.0089798578         0.1374812819        23.5711577011    14 
   58     1         3.8757750000        93.4232872212        41.8614154937        -6.6000255771         0.0000000000        -0.0164873736        -0.0102845605         0.0194320784        25.1391421995    15 
   59     1         3.8757750000        80.6166081828        39.3109856444        -6.5630804087        -0.0000000000        -0.1198737933        -0.0794956182         0.1438376851        22.7937660876    14 
   60     1         1.2919250000        95.0668480983        40.8892223455        -6.3840229695        -0.0000000000        -0.1372726935        -0.3551434765         0.3807501559        22.4769982790    14 
   61     1         3.8757750000        82.7204633297        36.9440785593        -6.6224453733        -0.0000000000        -0.1332340828         0.0024334262         0.1332563034        23.4220097209    12 
   62     1         1.2919250000        82.4435966109        38.7983882109        -6.5964122156        -0.0000000000        -0.0572315623         0.0211170394         0.0610031235        23.5875584145    16 
   63     1         3.8757750000        96.5714510040        42.2375099790        -6.4547698679         0.0000000000        -0.0441467454        -0.2677460524         0.2713611684        22.8865914467    15 
   64     1         3.8757750000        83.8196492328        40.0436182531        -6.6054306927         0.0000000000        -0.0926558980         0.0383408024         0.1002752839        24.3089806865    14 
   65     1         1.2919250000        98.3964708877        42.0864913943        -6.6357229097        -0.0000000000         0.0165269414         0.2147913401         0.2154262277        25.6814717292    15 
   66     1         1.2919250000        85.5396784006        39.3609541767        -6.5464437855        -0.0000000000        -0.1369729272        -0.0295270859         0.1401193477        23.1177258411    14 
   67     1         3.8757750000        86.8785648682        40.6517541566        -6.4885070609         0.0000000000        -0.2095634172         0.0290141851         0.2115623993        23.9007792240    14 
   68     1         1.2919250000        86.6359866080        42.2969548267        -6.3836682461        -0.0000000000        -0.0992724380        -0.2083012047         0.2307475002        24.0019224667    15 
   69     1         1.2919250000        88.7153967397        40.0449844224        -6.5469638482        -0.0000000000        -0.1370777427         0.0397069717         0.1427128276        24.1863468982    12 
   70     1         3.8757750000        89.9756179794        41.0365204146        -6.4134144902        -0.0000000000        -0.2883334607        -0.2078454073         0.3554376146        24.2334857675    16 
   71     1         3.8757750000         1.7592923198         0.5717502805        -6.5466177849        -0.0000000000        -0.0050538772        -0.0661152636         0.0663081425        24.0847201015    12 
   72     1         3.8757750000         4.9924144858         0.4918755807        -6.1957358956        -0.0000000000         0.0522451341         0.4918755807         0.4946424374        22.1570853170    13 
   73     1         1.2919250000         3.4482064011         1.1157205857        -6.6091498493        -0.0000000000        -0.0804859930        -0.1557009357         0.1752734333        25.9328158196    15 
   74     1         1.2919250000         6.7000521952         0.6518671796        -6.5799488104         0.0000000000        -0.0044633536         0.0140016355         0.0146958266        24.2924618913    12 
   75     1         1.2919250000         9.7059313803         0.5341674438        -6.2554941469        -0.0000000000        -0.1744073231         0.5341674438         0.5619188308        22.4171652314    13 
   76     1         3.8757750000         7.1307390225         2.5807243724        -6.5807775796         0.0000000000         0.0733542344         0.0603427683         0.0949847008        24.0727486156    14 
   77     1         3.8757750000        10.2476254187         2.0535081189        -6.4901561378         0.0000000000         0.0144174759         0.1547523653         0.1554225150        23.0581947478    14 
   78     1         1.2919250000         8.7984608273         3.3405892148        -6.4836510976        -0.0000000000        -0.0232701579         0.2027450900         0.2040761420        22.6260944650    14 
   79     1         3.8757750000        13.3402933308         0.9312350754        -6.6964686048         0.0000000000        -0.0687377667        -0.3401864460         0.3470615200        26.9056598766    15 
   80     1         1.2919250000        12.1076174728         2.3668303945        -6.6081135414        -0.0000000000         0.1100633330        -0.1535512096         0.1889230299        23.8306097824    14 
   81     1         1.2919250000        15.1416070923         2.0172228666        -6.4608298678        -0.0000000000        -0.0317702021         0.1184671129         0.1226531801        22.9327602611    16 
   82     1         3.8757750000        24.0185886110         5.0308800626        -6.5908674345         0.0000000000         0.0234803314         0.0527248707         0.0577168775        22.9023895414    14 
   83     1         3.8757750000        12.3869812014         4.2662277454        -6.6214913829         0.0000000000         0.0365578221        -0.0996226587         0.1061185586        23.6713906006    14 
   84     1         1.2919250000        10.9890467303         5.5458652409        -6.6327419434        -0.0000000000         0.0501003086        -0.0440896951         0.0667378614        23.5846133137    16 
   85     1         3.8757750000        15.4761286708         3.6169737625        -6.5858134090         0.0000000000        -0.0501178631        -0.1356665505         0.1446278435        23.5123512962    12 
   86     1         1.2919250000        14.1097414870         4.9641465684        -6.5984685279        -0.0000000000        -0.0050280892        -0.0140086235         0.0148836560        23.1525996262    14 
   87     1         3.8757750000        18.6348539168         3.1562407454        -6.5599597308         0.0000000000        -0.0672157717         0.0183966206         0.0696878441        23.0994236760    16 
   88     1         1.2919250000        17.2851079256         4.3159471996        -6.5980843831        -0.0000000000        -0.0054848053        -0.0499032044         0.0502037140        23.4275941331    12 
   89     1         1.2919250000        20.4335602142         3.6901123219        -6.6462120161         0.0000000000        -0.0328556714        -0.0625279911         0.0706345865        23.7630298522    14 
   90     1         3.8757750000        14.4613768091         6.7531194188        -6.6323001459         0.0000000000        -0.0062620066        -0.0597262903         0.0600536633        23.4833008539    14 
   91     1         3.8757750000        17.6061101751         6.1622133972        -6.6339509042         0.0000000000        -0.0373517952        -0.0392630453         0.0541917275        23.4626989190    14 
   92     1         1.2919250000        16.2220520148         7.3997240712        -6.6198058904        -0.0000000000        -0.0099329979        -0.0244079156         0.0263516753        23.4123345146    14 
   93     1         3.8757750000        20.7946013197         5.5603619524        -6.6488784587         0.0000000000        -0.0246838053        -0.0295929837         0.0385361509        23.5561212779    14 
   94     1         1.2919250000        19.3832289547         6.7730146448        -6.6448672889        -0.0000000000        -0.0245792126        -0.0398310643         0.0468043948        23.5021661257    14 
   95     1         1.2919250000        22.5520664081         6.2260847788        -6.6308572813        -0.0000000000        -0.0315649139         0.0246083364         0.0400239179        23.2536231474    14 
   96     1         3.8757750000        31.3855027383         9.2254482870        -6.6366507091        -0.0000000000        -0.0198595689        -0.0323446991         0.0379550001        23.3904055887    14 
   97     1         3.8757750000        19.7332984939         8.6243490164        -6.6461273327        -0.0000000000        -0.0273789128        -0.0222406972         0.0352739774        23.6210173886    18 
   98     1         1.2919250000        33.1396557535         9.8597495405        -6.6285471698        -0.0000000000        -0.0300527506        -0.0092394842         0.0314409906        23.4907142207    12 
   99     1         3.8757750000        22.9336621377         8.0241025050        -6.6275144539         0.0000000000        -0.0028384236        -0.0112706121         0.0116225361        23.3168487775    12 
  100     1         1.2919250000        21.5066738873         9.2316187999        -6.6291698369        -0.0000000000        -0.0183497165        -0.0261741863         0.0319656084        23.3287532092    12 
  101     1         3.8757750000        26.1294034869         7.3933006192        -6.6278224220         0.0000000000         0.0170797708        -0.0308313675         0.0352461600        23.4735080874    12 
  102     1         1.2919250000        24.7093702122         8.6230946901        -6.6471206860        -0.0000000000         0.0085234537        -0.0234950236         0.0249933070        23.6195888469    18 
  103     1         1.2919250000        27.8833759120         8.0192637058        -6.6369610407        -0.0000000000         0.0067059989        -0.0161094113         0.0174494571        23.3777471669    14 
  104     1         3.8757750000        21.8872358674        11.0326714359        -6.6302253519         0.0000000000         0.0093430242        -0.0587082152         0.0594470070        23.2697801555    14 
  105     1         3.8757750000        25.0576378361        10.4751012897        -6.6434442943         0.0000000000         0.0039218383        -0.0050798470         0.0064176055        23.5024864782    14 
  106     1         1.2919250000        23.6443844446        11.6887218994        -6.6483229256        -0.0000000000         0.0021454044        -0.0138498637         0.0140150449        23.5652112922    14 
  107     1         3.8757750000        28.2263287126         9.8454392631        -6.6227523184         0.0000000000        -0.0032104399        -0.0235497616         0.0237675871        23.4298385029    14 
  108     1         1.2919250000        26.8341423846        11.0770720842        -6.6354558669        -0.0000000000         0.0160801898        -0.0143075669         0.0215239163        23.4434498987    14 
  109     1         1.2919250000        29.9886424925        10.4858936549        -6.6332683968         0.0000000000        -0.0052428570         0.0057125182         0.0077537355        23.4629898993    14 
  110     1         3.8757750000        38.8270007914        13.5620293507        -6.6438744523         0.0000000000         0.0113844567         0.0258416800         0.0282382414        23.7196605750    14 
  111     1         3.8757750000        27.1566217014        12.9226538093        -6.6019142084         0.0000000000        -0.0143097329        -0.0023172649         0.0144961433        23.4606481400    12 
  112     1         1.2919250000        40.6149803775        14.0873061778        -6.5672132324        -0.0000000000         0.0350178458        -0.0601226232         0.0695771467        23.1037893511    16 
  113     1         3.8757750000        30.3395900530        12.2840621455        -6.6050437378         0.0000000000        -0.0071645359        -0.0297056561         0.0305574309        23.1745220157    14 
  114     1         1.2919250000        28.9645896389        13.5965310227        -6.5861430156        -0.0000000000         0.0293120076         0.0603433521         0.0670858698        23.3919292402    12 
  115     1         3.8757750000        33.4618937012        11.7055700826        -6.6336522428        -0.0000000000        -0.0606840423         0.0029983196         0.0607580687        23.6034310933    16 
  116     1         1.2919250000        32.0631828599        12.9846280635        -6.6196199281         0.0000000000        -0.0479179261         0.0596569894         0.0765185208        23.6497456626    14 
  117     1         1.2919250000        35.2519035208        12.2385672451        -6.5965979444        -0.0000000000        -0.0350204198        -0.0752005566         0.0829551295        22.9742270797    14 
  118     1         3.8757750000        44.1120034905        15.2375443502        -6.4777704837         0.0000000000         0.0033485647        -0.1325399951         0.1325822884        22.9817123963    16 
  119     1         3.8757750000        32.3410694024        14.8780593234        -6.6026064890         0.0000000000        -0.1229006229         0.1193442447         0.1713114470        23.8514269352    14 
  120     1         1.2919250000        45.8936823351        16.2648228224        -6.6878247427        -0.0000000000         0.0206812123         0.2832169707         0.2839710638        26.6122152742    15 
  121     1         3.8757750000        35.6472983089        13.9339102076        -6.4931431721         0.0000000000         0.0075051288        -0.2135185934         0.2136504544        22.7260578307    14 
  122     1         1.2919250000        34.2015415691        15.2211097853        -6.4996972848        -0.0000000000        -0.0267746533        -0.1489745600         0.1513614931        23.1569769369    14 
  123     1         1.2919250000        37.3340796986        14.6974900461        -6.5849386331        -0.0000000000        -0.0700596784        -0.0612250326         0.0930422654        24.1324170348    14 
  124     1         3.8757750000        46.6825115879        18.2917722747        -6.6410567393         0.0000000000         0.4566412257         0.4728517998         0.6573507691        25.8556511709    13 
  125     1         3.8757750000        34.7343710961        16.7476802500        -6.2876413153        -0.0000000000         0.1531856343        -0.4580301337         0.4829673301        22.6608101346    13 
  126     1         1.2919250000        48.4867727210        18.1690079982        -6.4554492467        -0.0000000000         0.4965561618        -0.2647086648         0.5627065834        22.7674029191    15 
  127     1         3.8757750000        37.7608175826        16.6137246008        -6.5939564379        -0.0000000000         0.0038089661         0.0203190050         0.0206729337        24.4601916761    12 
  128     1         1.2919250000        36.8231017874        18.5005171793        -6.6333960694         0.0000000000         0.4775701286         0.6815967044         0.8322543453        25.5525444791    15 
  129     1         3.8757750000        40.9737394115        16.1289588685        -6.5962556596         0.0000000000         0.0409076404         0.1473530168         0.1529259514        25.7190418284    15 
  130     1         1.2919250000        39.5021195918        16.8017122059        -6.2408826154         0.0000000000        -0.0192352216        -0.4039981778         0.4044558337        22.5866872925    13 
  131     1         1.2919250000        42.7087842022        16.6106012899        -6.5131804108         0.0000000000         0.0116062341         0.0171956941         0.0207460012        24.0243453417    12 
  132     1         3.8757750000        53.0604307332        19.7314100589        -6.6437086093         0.0000000000         1.5415217799         0.0586050248         1.5426353901        24.6525285263    14 
  133     1         3.8757750000        41.4270970532        20.3241080590        -6.5477846012         0.0000000000         1.5528730003         1.2729288753         2.0079249181        24.5173977042    12 
  134     1         1.2919250000        40.0767881422        19.4863193695        -6.3481054256        -0.0000000000         1.6140410469        -0.8138198969         1.8076037524        23.8391706526    16 
  135     1         3.8757750000        43.5809820483        18.1111193855        -6.3788874605         0.0000000000         0.5309348408        -0.3225972774         0.6212574415        24.0749647068    15 
  136     1         1.2919250000        43.2127875846        19.7106245573        -6.5048129150        -0.0000000000         1.5742173346         0.0378195231         1.5746715635        24.0820167468    12 
  137     1         1.2919250000        46.3206548688        20.3127243247        -6.6259702843         0.0000000000         1.5062614642         1.2615451410         1.9647696408        24.7405276124    14 
  138     1         3.8757750000        44.6054918246        21.0196033315        -6.5382267543         0.0000000000        -0.5617708194         0.0859080879         0.5683015512        23.2201043830    14 
  139     1         3.8757750000        49.9122524015        19.5499554716        -6.3624249574         0.0000000000         1.5691666029        -0.7501837947         1.7392698334        22.3570742118    14 
  140     1         1.2919250000        49.5336789179        21.0834365152        -6.5560692244         0.0000000000        -0.5737530778         0.1497412716         0.5929713675        22.8307594953    14 
