ITEM: TIMESTEP
200
ITEM: NUMBER OF ATOMS
140
ITEM: BOX BOUNDS xy xz yz pp pp pp
0.0000000000000000e+000 5.1677000000000124e+000 2.0000000000000002e-015
0.0000000000000000e+000 1.0077945477432876e+002 1.1000000000000000e-014
0.0000000000000000e+000 4.3143121575999999e+001 8.5958946719328750e+001
ITEM: ATOMS id type x y z c_peatom c_datom[1] c_datom[2] c_datom[3] c_datom[4] c_voratom[1] c_voratom[2] 
    1     1         3.8757750000        47.7359720246        21.6021165003        -6.5932114129        -0.0000000000        -0.1836706868         0.0305557125         0.1861949858        23.5717710058    16 
    2     1         1.2919250000        47.4632652234        23.4459052081        -6.6223473519         0.0000000000        -0.1035082486        -0.0244113333         0.1063478759        23.4510755312    12 
    3     1         3.8757750000        63.6935961241        24.6768779393        -6.6374500772        -0.0000000000        -0.1051623605        -0.0325269733         0.1100778182        23.5502812106    16 
    4     1         3.8757750000        51.0349291229        22.3328207274        -6.5894532623        -0.0000000000        -0.0605367431         0.1233943955         0.1374440763        23.0673133598    14 
    5     1         1.2919250000        50.6543212214        24.0976204522        -6.6244024262         0.0000000000        -0.0882754052         0.0056780603         0.0884578291        23.2963347057    14 
    6     1         1.2919250000        52.7649822120        21.5919676808        -6.6214994723         0.0000000000        -0.0948298510         0.0204068930         0.0970007316        23.4475847756    14 
    7     1         3.8757750000        52.0814152793        25.3176457244        -6.6344731639        -0.0000000000        -0.0726583050        -0.0065553764         0.0729534251        23.3641027911    14 
    8     1         3.8757750000        54.1891443608        22.8120591458        -6.6523280997        -0.0000000000        -0.0821446599        -0.0309231634         0.0877723600        23.5952307246    14 
    9     1         1.2919250000        53.8332720286        24.6662866419        -6.6449236999         0.0000000000        -0.0851477527        -0.0431182708         0.0954427842        23.5488022213    14 
   10     1         1.2919250000        55.9834631369        22.2740155886        -6.5705581792         0.0000000000        -0.0521720808         0.0645892567         0.0830282969        23.1091677966    16 
   11     1         3.8757750000        55.2434058185        25.8960262336        -6.6403982953        -0.0000000000        -0.0864909204        -0.0413849583         0.0958821886        23.5013559634    14 
   12     1         1.2919250000        69.7140152953        27.7394015692        -6.6377180389         0.0000000000        -0.0835202593        -0.0336356610         0.0900388327        23.5057659434    16 
   13     1         3.8757750000        57.3582056286        23.4534545533        -6.6098255454        -0.0000000000        -0.0889065467        -0.0168619882         0.0904914399        23.4295698760    12 
   14     1         1.2919250000        57.0182544980        25.3039055931        -6.6392360767         0.0000000000        -0.0759884379        -0.0202955076         0.0786520840        23.4190816543    14 
   15     1         1.2919250000        59.1285269957        22.8173905237        -6.6229721250         0.0000000000        -0.0829313766        -0.0255917855         0.0867902800        23.4209740528    14 
   16     1         3.8757750000        71.1223005263        28.9709374712        -6.6348689067        -0.0000000000        -0.0867119858        -0.0247553034         0.0901764578        23.4712156622    14 
   17     1         3.8757750000        58.4164531144        26.5277738019        -6.6303989847        -0.0000000000        -0.0892667792        -0.0219421778         0.0919239742        23.4344905649    14 
   18     1         1.2919250000        58.0706047681        28.3641540067        -6.6348973503         0.0000000000        -0.0822458861        -0.0202524901         0.0847027103        23.4507829282    14 
   19     1         3.8757750000        60.5207008697        24.0795412178        -6.6370834166        -0.0000000000        -0.1022344603        -0.0124011740         0.1029838530        23.3381099453    14 
   20     1         1.2919250000        60.1830134012        25.9063986446        -6.6342573899         0.0000000000        -0.0870526894        -0.0310125473         0.0924118435        23.4687761927    14 
   21     1         3.8757750000        59.4793744227        29.5924018584        -6.6346567505        -0.0000000000        -0.0849531890        -0.0145320465         0.0861871493        23.4713535569    14 
   22     1         3.8757750000        61.5924451029        27.1377045416        -6.6353668867        -0.0000000000        -0.0890979453        -0.0238111822         0.0922248136        23.4530758061    14 
   23     1         1.2919250000        61.2440342857        28.9728152694        -6.6339946912         0.0000000000        -0.0846395231        -0.0228775051         0.0876768447        23.4578014916    14 
   24     1         1.2919250000        63.3560476237        26.5210998453        -6.6315787574         0.0000000000        -0.0898416215        -0.0286161344         0.0942889183        23.4784417947    12 
   25     1         3.8757750000        62.6543970647        30.1996930236        -6.6347604927        -0.0000000000        -0.0857537017        -0.0184574778         0.0877175914        23.4636134507    14 
   26     1         1.2919250000        77.1223436681        32.0340390399        -6.6346902480         0.0000000000        -0.0854459139        -0.0177028845         0.0872605084        23.4442464335    14 
   27     1         3.8757750000        64.7687371417        27.7469203528        -6.6361598730        -0.0000000000        -0.0886290611        -0.0261168774         0.0923969792        23.5126171734    16 
   28     1         1.2919250000        64.4216107776        29.5868867282        -6.6341889875         0.0000000000        -0.0828861859        -0.0200471767         0.0852760758        23.4856982526    14 
   29     1         1.2919250000        66.5400987761        27.1419189955        -6.6324801435         0.0000000000        -0.0816136238        -0.0195967284         0.0839333983        23.4392019626    12 
   30     1         3.8757750000        78.5343797153        33.2582751168        -6.6324265550        -0.0000000000        -0.0848868243        -0.0158574340         0.0863552613        23.4385424227    12 
   31     1         3.8757750000        65.8323773661        30.8134615140        -6.6341488207        -0.0000000000        -0.0835965549        -0.0158922600         0.0850937596        23.4854165820    14 
   32     1         1.2919250000        65.4852457141        32.6534106075        -6.6362034606         0.0000000000        -0.0778589676        -0.0095298314         0.0784400186        23.5127155800    16 
   33     1         3.8757750000        67.9520574894        28.3662866029        -6.6346646155        -0.0000000000        -0.0811318681        -0.0181198939         0.0831306837        23.4442832399    14 
   34     1         1.2919250000        67.5995469385        30.2006578844        -6.6347749710         0.0000000000        -0.0807731796        -0.0174926170         0.0826456181        23.4637935177    14 
   35     1         3.8757750000        81.7185155941        33.8792651204        -6.6315583241        -0.0000000000        -0.0765741002        -0.0060634691         0.0768137909        23.4780797328    12 
   36     1         3.8757750000        69.0099320952        31.4275877980        -6.6339973129        -0.0000000000        -0.0818649805        -0.0129620145         0.0828847927        23.4579625795    14 
   37     1         1.2919250000        68.6615495553        33.2626766999        -6.6353329432         0.0000000000        -0.0773782810        -0.0114558509         0.0782217035        23.4528940523    14 
   38     1         1.2919250000        70.7745435871        30.8079408695        -6.6346099233         0.0000000000        -0.0815996857        -0.0214129044         0.0843624394        23.4711740314    14 
   39     1         3.8757750000        70.0708464807        34.4942602667        -6.6342590572        -0.0000000000        -0.0795583132        -0.0022715952         0.0795907366        23.4696796139    14 
   40     1         1.2919250000        84.5536409377        36.3210343119        -6.6370428460         0.0000000000        -0.0644026719        -0.0092415546         0.0650623584        23.3381825046    14 
   41     1         3.8757750000        72.1832647144        32.0362393232        -6.6349483165        -0.0000000000        -0.0843555160        -0.0155026012         0.0857681976        23.4511577059    14 
   42     1         1.2919250000        71.8373622775        33.8726730478        -6.6303111865         0.0000000000        -0.0773887135        -0.0126555416         0.0784166801        23.4343734285    14 
   43     1         1.2919250000        73.9520793678        31.4294218090        -6.6348546171         0.0000000000        -0.0798870596        -0.0111280035         0.0806583831        23.4710704834    14 
   44     1         3.8757750000        85.9455932374        37.5836759206        -6.6229117839        -0.0000000000        -0.0839273298         0.0305092811         0.0893006883        23.4226142350    14 
   45     1         3.8757750000        73.2353881489        35.0964860518        -6.6392761480        -0.0000000000        -0.0908397997        -0.0112624067         0.0915352992        23.4192334777    14 
   46     1         1.2919250000        87.7158599535        36.9472292949        -6.6097091873         0.0000000000        -0.0780068107         0.0055841618         0.0782064280        23.4299344463    12 
   47     1         3.8757750000        75.3603360497        32.6608837142        -6.6377484414        -0.0000000000        -0.0831073353        -0.0020567247         0.0831327812        23.5057751432    16 
   48     1         1.2919250000        75.0102572269        34.5043071078        -6.6404861978         0.0000000000        -0.0803169187         0.0077752459         0.0806923905        23.5012339953    14 
   49     1         3.8757750000        89.0905051873        38.1258115277        -6.5701976869        -0.0000000000        -0.1148385346        -0.0391548559         0.1213300943        23.1073524239    16 
   50     1         3.8757750000        76.4205140827        35.7337356249        -6.6449223112        -0.0000000000        -0.0815370205         0.0147460361         0.0828597085        23.5474916605    14 
   51     1         1.2919250000        76.0643179401        37.5879198570        -6.6524127629         0.0000000000        -0.0848639237         0.0347532175         0.0917042620        23.5959921539    14 
   52     1         1.2919250000        78.1723912405        35.0824794919        -6.6345764053         0.0000000000        -0.0940060598        -0.0252689666         0.0973430015        23.3638590011    14 
   53     1         3.8757750000        92.3098527819        38.8070789213        -6.6208792782        -0.0000000000        -0.0713140945         0.0298077498         0.0772929623        23.4435568080    14 
   54     1         1.2919250000        91.9702768597        40.6804522238        -6.6450062892         0.0000000000        -0.0580207774         0.0577122523         0.0818359009        24.7598011174    14 
   55     1         3.8757750000        79.5998282227        36.3023205074        -6.6244051504        -0.0000000000        -0.0780460352        -0.0279553591         0.0829016629        23.2944246467    14 
   56     1         1.2919250000        79.2188622621        38.0668549586        -6.5890174955         0.0000000000        -0.1061427564        -0.0981114250         0.1445411237        23.0645431677    14 
   57     1         1.2919250000        81.3809457012        35.7234104998        -6.6374166741         0.0000000000        -0.0612747537         0.0044209110         0.0614340288        23.5496084045    16 
   58     1         3.8757750000        93.4203890074        41.8817095406        -6.6245057212        -0.0000000000        -0.0193855873         0.0100094865         0.0218172138        25.4026005147    15 
   59     1         3.8757750000        80.6778210979        39.3136688087        -6.5594925896        -0.0000000000        -0.0586608782        -0.0768124539         0.0966501511        22.8169652096    14 
   60     1         1.2919250000        95.1272818583        40.8617823961        -6.3704831268         0.0000000000        -0.0768389334        -0.3825834258         0.3902233968        22.4057875696    14 
   61     1         3.8757750000        82.7905736871        36.9548989996        -6.6223665974        -0.0000000000        -0.0631237255         0.0132538665         0.0645001527        23.4521964560    12 
   62     1         1.2919250000        82.5177102339        38.7983453368        -6.5931736379         0.0000000000         0.0168820607         0.0210741653         0.0270023039        23.5712285895    16 
   63     1         3.8757750000        96.5780060553        42.2323327385        -6.4563000986        -0.0000000000        -0.0375916941        -0.2729232929         0.2755000169        22.8208639643    15 
   64     1         3.8757750000        83.8889400978        40.0707347470        -6.6186479422        -0.0000000000        -0.0233650330         0.0654572963         0.0695023913        24.5783619152    14 
   65     1         1.2919250000        98.3929006654        42.0989963582        -6.6412447642         0.0000000000         0.0129567191         0.2272963041         0.2276652947        25.7960030143    15 
   66     1         1.2919250000        85.6044319227        39.3773869854        -6.5423388312         0.0000000000        -0.0722194051        -0.0130942772         0.0733968839        23.1928111269    14 
   67     1         3.8757750000        86.9838970249        40.6794575872        -6.4998921724        -0.0000000000        -0.1042312605         0.0567176158         0.1186635732        24.0397433680    14 
   68     1         1.2919250000        86.6625941365        42.2948698102        -6.3813442104         0.0000000000        -0.0726649096        -0.2103862212         0.2225815607        24.0530695799    15 
   69     1         1.2919250000        88.7839716737        40.0653826206        -6.5468560081         0.0000000000        -0.0685028087         0.0601051699         0.0911332335        24.3953910614    12 
   70     1         3.8757750000        90.1109847446        40.9502532927        -6.3693178835        -0.0000000000        -0.1529666954        -0.2941125292         0.3315131819        24.0024591723    16 
   71     1         3.8757750000         1.6521542324         0.6265554032        -6.5214392403        -0.0000000000        -0.1121919647        -0.0113101410         0.1127606147        24.0622718279    12 
   72     1         3.8757750000         4.8658072612         0.4686563304        -6.2226305402        -0.0000000000        -0.0743620905         0.4686563304         0.4745192056        22.4030716797    13 
   73     1         1.2919250000         3.3710145684         1.1223300726        -6.6021566837         0.0000000000        -0.1576778257        -0.1490914488         0.2170035871        25.8178731411    15 
   74     1         1.2919250000         6.5965076303         0.6481553204        -6.5876666987         0.0000000000        -0.1080079185         0.0102897763         0.1084969582        24.3897366693    12 
   75     1         1.2919250000         9.6141892913         0.5184711545        -6.2768683646         0.0000000000        -0.2661494120         0.5184711545         0.5827931430        22.5893710597    13 
   76     1         3.8757750000         7.0302799252         2.5646563501        -6.5845986540        -0.0000000000        -0.0271048629         0.0442747460         0.0519126836        24.1226903183    14 
   77     1         3.8757750000        10.1565611985         2.0418335481        -6.4957304695        -0.0000000000        -0.0766467442         0.1430777945         0.1623144438        23.1138094951    14 
   78     1         1.2919250000         8.7106933619         3.3304943399        -6.4889325277         0.0000000000        -0.1110376233         0.1926502150         0.2223588521        22.6853633750    14 
   79     1         3.8757750000        13.2694484205         0.9669369778        -6.6916739868        -0.0000000000        -0.1395826769        -0.3044845436         0.3349539685        26.7419759382    15 
   80     1         1.2919250000        12.0163381140         2.3711017927        -6.6054538094         0.0000000000         0.0187839742        -0.1492798114         0.1504569698        23.8416768767    14 
   81     1         1.2919250000        15.0585899393         2.0213509683        -6.4714958182         0.0000000000        -0.1147873552         0.1225952147         0.1679455971        22.9519996138    16 
   82     1         3.8757750000        23.9318385286         5.0212798954        -6.5943652852        -0.0000000000        -0.0632697510         0.0431247034         0.0765689326        22.9453170013    14 
   83     1         3.8757750000        12.2997458061         4.2674896342        -6.6212863343        -0.0000000000        -0.0506775731        -0.0983607698         0.1106483504        23.6649068874    14 
   84     1         1.2919250000        10.9015928536         5.5475258152        -6.6333381682         0.0000000000        -0.0373535681        -0.0424291209         0.0565289249        23.5948657430    16 
   85     1         3.8757750000        15.3940359158         3.6457722775        -6.5841089390         0.0000000000        -0.1322106180        -0.1068680355         0.1700012486        23.4189348114    12 
   86     1         1.2919250000        14.0218088231         4.9699507854        -6.6015127212         0.0000000000        -0.0929607531        -0.0082044066         0.0933220976        23.1591343706    14 
   87     1         3.8757750000        18.5591122639         3.1667542034        -6.5638183577        -0.0000000000        -0.1429574246         0.0289100785         0.1458513555        23.0917181781    16 
   88     1         1.2919250000        17.2019701142         4.3285584305        -6.6011287882        -0.0000000000        -0.0886226167        -0.0372919736         0.0961491523        23.4489596961    12 
   89     1         1.2919250000        20.3502117893         3.6934392025        -6.6442323582         0.0000000000        -0.1162040962        -0.0592011105         0.1304153498        23.7321801832    14 
   90     1         3.8757750000        14.3781460781         6.7631753117        -6.6333636221        -0.0000000000        -0.0894927375        -0.0496703974         0.1023528136        23.4674455328    14 
   91     1         3.8757750000        17.5285658765         6.1738942076        -6.6340887738        -0.0000000000        -0.1148960938        -0.0275822349         0.1181604505        23.4393687953    14 
   92     1         1.2919250000        16.1396243758         7.4070472862        -6.6220720071        -0.0000000000        -0.0923606369        -0.0170847005         0.0939274946        23.4213935368    14 
   93     1         3.8757750000        20.7164822029         5.5647666751        -6.6484843393        -0.0000000000        -0.1028029221        -0.0251882610         0.1058437021        23.5578899839    14 
   94     1         1.2919250000        19.3044498856         6.7793538084        -6.6444509775         0.0000000000        -0.1033582818        -0.0334919007         0.1086491685        23.5012993097    14 
   95     1         1.2919250000        22.4726540565         6.2252856808        -6.6296834070         0.0000000000        -0.1109772655         0.0238092384         0.1135025696        23.2582771952    14 
   96     1         3.8757750000        31.3081121985         9.2322889663        -6.6363168510        -0.0000000000        -0.0972501087        -0.0255040198         0.1005387421        23.3783099553    14 
   97     1         3.8757750000        19.6577248865         8.6301697006        -6.6461483331        -0.0000000000        -0.1029525203        -0.0164200131         0.1042537206        23.6139807908    18 
   98     1         1.2919250000        33.0616624413         9.8639812209        -6.6290265494         0.0000000000        -0.1080460629        -0.0050078038         0.1081620535        23.4876812878    12 
   99     1         3.8757750000        22.8576591634         8.0236986086        -6.6285546303        -0.0000000000        -0.0788413980        -0.0116745085         0.0797010676        23.3213642930    12 
  100     1         1.2919250000        21.4311574357         9.2334954728        -6.6285171204         0.0000000000        -0.0938661680        -0.0242975133         0.0969599229        23.3210891063    12 
  101     1         3.8757750000        26.0474994175         7.3932544860        -6.6290448815        -0.0000000000        -0.0648242985        -0.0308775007         0.0718025747        23.4880112248    12 
  102     1         1.2919250000        24.6310516385         8.6271636476        -6.6461218470         0.0000000000        -0.0697951200        -0.0194260661         0.0724481250        23.6139840966    18 
  103     1         1.2919250000        27.8010535227         8.0251310596        -6.6363091108         0.0000000000        -0.0756163904        -0.0102420575         0.0763068689        23.3785010837    14 
  104     1         3.8757750000        21.8161620865        11.0318469829        -6.6297201721        -0.0000000000        -0.0617307567        -0.0595326682         0.0857602758        23.2580920742    14 
  105     1         3.8757750000        24.9843516931        10.4779740964        -6.6444885627        -0.0000000000        -0.0693643048        -0.0022070402         0.0693994078        23.5013786005    14 
  106     1         1.2919250000        23.5723386894        11.6925314967        -6.6484801624         0.0000000000        -0.0699003508        -0.0100402664         0.0706177456        23.5576298009    14 
  107     1         3.8757750000        28.1490189728         9.8503756910        -6.6220038990        -0.0000000000        -0.0805201797        -0.0186133337         0.0826435450        23.4210175688    14 
  108     1         1.2919250000        26.7602443977        11.0836378573        -6.6340548485         0.0000000000        -0.0578177972        -0.0077417938         0.0583338070        23.4398605592    14 
  109     1         1.2919250000        29.9104525384        10.4943836065        -6.6333512969         0.0000000000        -0.0834328111         0.0142024698         0.0846329966        23.4680746277    14 
  110     1         3.8757750000        38.7590542036        13.5637889350        -6.6442820426        -0.0000000000        -0.0565621311         0.0276012643         0.0629373058        23.7333314414    14 
  111     1         3.8757750000        27.0868076579        12.9290137659        -6.6010425951        -0.0000000000        -0.0841237764         0.0040426918         0.0842208591        23.4484309925    12 
  112     1         1.2919250000        40.5504030847        14.0906517364        -6.5636201863         0.0000000000        -0.0295594470        -0.0567770646         0.0640109051        23.0915838113    16 
  113     1         3.8757750000        30.2667812787        12.2874169746        -6.6013717485        -0.0000000000        -0.0799733102        -0.0263508271         0.0842027104        23.1587940591    14 
  114     1         1.2919250000        28.8947331004        13.6123795845        -6.5841012226         0.0000000000        -0.0405445309         0.0761919138         0.0863079760        23.4217248050    12 
  115     1         3.8757750000        33.3869784154        11.7097375518        -6.6333102606        -0.0000000000        -0.1355993281         0.0071657887         0.1357885353        23.5945129839    16 
  116     1         1.2919250000        31.9888402067        12.9898192548        -6.6213287017         0.0000000000        -0.1222605793         0.0648481807         0.1383941320        23.6656206041    14 
  117     1         1.2919250000        35.1772341011        12.2356233853        -6.5942427502         0.0000000000        -0.1096898395        -0.0781444164         0.1346789171        22.9438713654    14 
  118     1         3.8757750000        44.0508732792        15.2359043394        -6.4711703598        -0.0000000000        -0.0577816465        -0.1341800060         0.1460924114        22.9512855125    16 
  119     1         3.8757750000        32.2722343231        14.8863375248        -6.6055323726        -0.0000000000        -0.1917357022         0.1276224461         0.2303260043        23.8410794160    14 
  120     1         1.2919250000        45.8404423001        16.2915956555        -6.6918871526         0.0000000000        -0.0325588227         0.3099898038         0.3116949717        26.7490439062    15 
  121     1         3.8757750000        35.5778882984        13.9263639719        -6.4887819449        -0.0000000000        -0.0619048816        -0.2210648291         0.2295688852        22.6834830291    14 
  122     1         1.2919250000        34.1320113801        15.2150171617        -6.4955185480         0.0000000000        -0.0963048423        -0.1550671836         0.1825389112        23.1120859737    14 
  123     1         1.2919250000        37.2579338514        14.6920071222        -6.5844989210         0.0000000000        -0.1462055256        -0.0667079565         0.1607047205        24.1214425575    14 
  124     1         3.8757750000        46.6782154893        18.3017670104        -6.6411339967        -0.0000000000         0.4523451271         0.4828465355         0.6616319905        25.7937576073    15 
  125     1         3.8757750000        34.6744776547        16.7383148295        -6.2761773306        -0.0000000000         0.0932921929        -0.4673955542         0.4766151879        22.5845824528    13 
  126     1         1.2919250000        48.4938612669        18.1679469794        -6.4563308936         0.0000000000         0.5036447076        -0.2657696835         0.5694659921        22.8244708173    15 
  127     1         3.8757750000        37.6917036506        16.6087847760        -6.5873544616        -0.0000000000        -0.0653049659         0.0153791802         0.0670914134        24.3867876902    12 
  128     1         1.2919250000        36.8309776976        18.5196066497        -6.6238377463         0.0000000000         0.4854460388         0.7006861749         0.8524194814        25.3939857018    15 
  129     1         3.8757750000        40.9180916753        16.1351056889        -6.6024550170        -0.0000000000        -0.0147400958         0.1534998372         0.1542059351        25.8231060807    15 
  130     1         1.2919250000        39.4217165216        16.7876255799        -6.2215318352         0.0000000000        -0.0996382919        -0.4180848039         0.4297937790        22.3929044388    13 
  131     1         1.2919250000        42.6359353582        16.6322173942        -6.5220697993         0.0000000000        -0.0612426100         0.0388117983         0.0725052616        24.0647944011    12 
  132     1         3.8757750000        53.1038154686        19.7191671180        -6.6450641280        -0.0000000000         1.5849065153         0.0463620839         1.5855844680        24.7672920219    14 
  133     1         3.8757750000        41.4693934368        20.3357610690        -6.5467720296        -0.0000000000         1.5951693839         1.2845818853         2.0481005794        24.3876018755    12 
  134     1         1.2919250000        40.1442213368        19.4474850306        -6.3707585861         0.0000000000         1.6814742414        -0.8526542358         1.8853049807        24.0127264726    16 
  135     1         3.8757750000        43.5888017488        18.1052983724        -6.3814438949        -0.0000000000         0.5387545413        -0.3284182905         0.6309635721        24.0515444167    15 
  136     1         1.2919250000        43.2705867447        19.7217391836        -6.4994969552         0.0000000000         1.6320164948         0.0489341494         1.6327499472        24.0363387247    14 
  137     1         1.2919250000        46.3645481731        20.3306028639        -6.6181870705         0.0000000000         1.5501547685         1.2794236802         2.0099514322        24.5691698268    14 
  138     1         3.8757750000        44.6489218038        21.0233752311        -6.5425574542        -0.0000000000        -0.5183408401         0.0896799875         0.5260415637        23.1911035942    14 
  139     1         3.8757750000        49.9462807149        19.5378339838        -6.3709429287        -0.0000000000         1.6031949163        -0.7623052826         1.7752023218        22.4092471099    14 
  140     1         1.2919250000        49.5754985577        21.0868968506        -6.5596480772         0.0000000000        -0.5319334380         0.1532016070         0.5535557017        22.8165095565    14 
