ITEM: TIMESTEP
0
ITEM: NUMBER OF ATOMS
140
ITEM: BOX BOUNDS xy xz yz pp pp pp
0.0000000000000000e+000 5.1677000000000124e+000 2.0000000000000002e-015
0.0000000000000000e+000 1.0077945477432876e+002 1.1000000000000000e-014
0.0000000000000000e+000 4.3143121575999999e+001 8.5958946719328750e+001
ITEM: ATOMS id type x y z c_peatom c_datom[1] c_datom[2] c_datom[3] c_datom[4] c_voratom[1] c_voratom[2] 
    1     1         3.8757750000        47.9196427113        21.5715607878        18.5377434588         0.0000000000         0.0000000000         0.0000000000         0.0000000000        20.2416125478    13 
    2     1         1.2919250000        47.5667734719        23.4703165414        -6.6507365690        -0.0000000000        -0.0000000000         0.0000000000         0.0000000000        26.1523574770    17 
    3     1         3.8757750000        63.7987584846        24.7094049127        -6.6414965686         0.0000000000         0.0000000000         0.0000000000         0.0000000000        23.6777472324    14 
    4     1         3.8757750000        51.0954658660        22.2094263319        -6.3020060046         0.0000000000        -0.0000000000         0.0000000000         0.0000000000        22.0589083588    14 
    5     1         1.2919250000        50.7425966266        24.0919423919        -6.6777854886         0.0000000000         0.0000000000         0.0000000000         0.0000000000        23.7383932108    14 
    6     1         1.2919250000        52.8598120630        21.5715607878        18.6707674051         0.0000000000         0.0000000000         0.0000000000         0.0000000000        17.6113937115    11 
    7     1         3.8757750000        52.1540735842        25.3242011008        -6.6712078192         0.0000000000        -0.0000000000         0.0000000000         0.0000000000        23.5867134101    14 
    8     1         3.8757750000        54.2712890207        22.8429823092        -6.6548231564         0.0000000000        -0.0000000000         0.0000000000         0.0000000000        25.9510674781    16 
    9     1         1.2919250000        53.9184197813        24.7094049127        -6.6621461960        -0.0000000000        -0.0000000000         0.0000000000         0.0000000000        23.7290798201    14 
   10     1         1.2919250000        56.0356352177        22.2094263319        -6.2568795361         0.0000000000         0.0000000000         0.0000000000         0.0000000000        25.3518977093    14 
   11     1         3.8757750000        55.3298967389        25.9374111918        -6.6226747379         0.0000000000        -0.0000000000         0.0000000000         0.0000000000        23.5182687469    14 
   12     1         1.2919250000        69.7975355545        27.7730372302        -6.6326559562         0.0000000000        -0.0000000000         0.0000000000         0.0000000000        23.4300603077    14 
   13     1         3.8757750000        57.4471121753        23.4703165414        -6.4977328462        -0.0000000000         0.0000000000         0.0000000000         0.0000000000        26.4458060914    17 
   14     1         1.2919250000        57.0942429359        25.3242011008        -6.5922332554        -0.0000000000        -0.0000000000         0.0000000000         0.0000000000        23.6205619445    14 
   15     1         1.2919250000        59.2114583723        22.8429823092        -6.5151423187        -0.0000000000        -0.0000000000         0.0000000000         0.0000000000        26.6794151956    12 
   16     1         3.8757750000        71.2090125122        28.9956927745        -6.6329779354         0.0000000000         0.0000000000         0.0000000000         0.0000000000        23.4112885988    14 
   17     1         3.8757750000        58.5057198935        26.5497159797        -6.6187040986         0.0000000000        -0.0000000000         0.0000000000         0.0000000000        23.4720132203    14 
   18     1         1.2919250000        58.1528506541        28.3844064969        -6.6332354348         0.0000000000        -0.0000000000         0.0000000000         0.0000000000        23.4187281951    14 
   19     1         3.8757750000        60.6229353300        24.0919423919        -6.5940542524         0.0000000000        -0.0000000000         0.0000000000         0.0000000000        23.5683882894    14 
   20     1         1.2919250000        60.2700660906        25.9374111918        -6.6063975459         0.0000000000        -0.0000000000         0.0000000000         0.0000000000        23.5389591187    14 
   21     1         3.8757750000        59.5643276118        29.6069339049        -6.6336343561         0.0000000000        -0.0000000000         0.0000000000         0.0000000000        23.4083510902    14 
   22     1         3.8757750000        61.6815430482        27.1615157238        -6.6339590345         0.0000000000         0.0000000000         0.0000000000         0.0000000000        23.4432241812    14 
   23     1         1.2919250000        61.3286738088        28.9956927745        -6.6337471145        -0.0000000000         0.0000000000         0.0000000000         0.0000000000        23.4124234056    14 
   24     1         1.2919250000        63.4458892452        26.5497159797        -6.6355545763        -0.0000000000         0.0000000000         0.0000000000         0.0000000000        23.4840596407    14 
   25     1         3.8757750000        62.7401507664        30.2181505014        -6.6340703772         0.0000000000         0.0000000000         0.0000000000         0.0000000000        23.4067542140    14 
   26     1         1.2919250000        77.2077895821        32.0517419244        -6.6345906825         0.0000000000         0.0000000000         0.0000000000         0.0000000000        23.4053332332    14 
   27     1         3.8757750000        64.8573662028        27.7730372302        -6.6310000041         0.0000000000         0.0000000000         0.0000000000         0.0000000000        23.4262815326    14 
   28     1         1.2919250000        64.5044969634        29.6069339049        -6.6341219727         0.0000000000        -0.0000000000         0.0000000000         0.0000000000        23.4089686008    14 
   29     1         1.2919250000        66.6217123999        27.1615157238        -6.6367466422         0.0000000000         0.0000000000         0.0000000000         0.0000000000        23.4500310004    14 
   30     1         3.8757750000        78.6192665397        33.2741325508        -6.6345708660         0.0000000000         0.0000000000         0.0000000000         0.0000000000        23.4055568992    14 
   31     1         3.8757750000        65.9159739211        30.8293537739        -6.6343384345        -0.0000000000        -0.0000000000         0.0000000000         0.0000000000        23.4059106605    14 
   32     1         1.2919250000        65.5631046817        32.6629404389        -6.6345662769         0.0000000000         0.0000000000         0.0000000000         0.0000000000        23.4053071534    14 
   33     1         3.8757750000        68.0331893575        28.3844064969        -6.6320812368        -0.0000000000         0.0000000000         0.0000000000         0.0000000000        23.4166515342    14 
   34     1         1.2919250000        67.6803201181        30.2181505014        -6.6343623682         0.0000000000         0.0000000000         0.0000000000         0.0000000000        23.4070881037    14 
   35     1         3.8757750000        81.7950896943        33.8853285894        -6.6345010960         0.0000000000         0.0000000000         0.0000000000         0.0000000000        23.4060715897    14 
   36     1         3.8757750000        69.0917970757        31.4405498125        -6.6344898671         0.0000000000         0.0000000000         0.0000000000         0.0000000000        23.4054767579    14 
   37     1         1.2919250000        68.7389278363        33.2741325508        -6.6344898671        -0.0000000000         0.0000000000         0.0000000000         0.0000000000        23.4054767578    14 
   38     1         1.2919250000        70.8561432727        30.8293537739        -6.6345010960         0.0000000000         0.0000000000         0.0000000000         0.0000000000        23.4060715898    14 
   39     1         3.8757750000        70.1504047939        34.4965318619        -6.6343623682        -0.0000000000         0.0000000000         0.0000000000         0.0000000000        23.4070881036    14 
   40     1         1.2919250000        84.6180436096        36.3302758665        -6.6318079197         0.0000000000        -0.0000000000         0.0000000000         0.0000000000        23.4166515342    14 
   41     1         3.8757750000        72.2676202304        32.0517419244        -6.6345662769         0.0000000000         0.0000000000         0.0000000000         0.0000000000        23.4053071535    14 
   42     1         1.2919250000        71.9147509910        33.8853285894        -6.6343384345         0.0000000000        -0.0000000000         0.0000000000         0.0000000000        23.4059106605    14 
   43     1         1.2919250000        74.0319664274        31.4405498125        -6.6345708660         0.0000000000         0.0000000000         0.0000000000         0.0000000000        23.4055568993    14 
   44     1         3.8757750000        86.0295205672        37.5531666395        -6.6147973923         0.0000000000         0.0000000000         0.0000000000         0.0000000000        23.4500310004    14 
   45     1         3.8757750000        73.3262279486        35.1077484585        -6.6341219727         0.0000000000         0.0000000000         0.0000000000         0.0000000000        23.4089686008    14 
   46     1         1.2919250000        87.7938667642        36.9416451331        -6.6202884808         0.0000000000        -0.0000000000         0.0000000000         0.0000000000        23.4262815325    14 
   47     1         3.8757750000        75.4434433850        32.6629404389        -6.6345906825         0.0000000000         0.0000000000         0.0000000000         0.0000000000        23.4053332333    14 
   48     1         1.2919250000        75.0905741456        34.4965318619        -6.6340703772         0.0000000000         0.0000000000         0.0000000000         0.0000000000        23.4067542140    14 
   49     1         3.8757750000        89.2053437219        38.1649663836        -6.6037172249         0.0000000000        -0.0000000000         0.0000000000         0.0000000000        23.4840596405    14 
   50     1         3.8757750000        76.5020511032        35.7189895888        -6.6337576199         0.0000000000        -0.0000000000         0.0000000000         0.0000000000        23.4124234056    14 
   51     1         1.2919250000        76.1491818638        37.5531666395        -6.6492002063         0.0000000000         0.0000000000         0.0000000000         0.0000000000        23.4432241809    14 
   52     1         1.2919250000        78.2663973003        35.1077484585        -6.6336343561        -0.0000000000         0.0000000000         0.0000000000         0.0000000000        23.4083510903    14 
   53     1         3.8757750000        77.5606588215        38.7772711715        -6.6547292883        -0.0000000000        -0.0000000000         0.0000000000         0.0000000000        23.5389591186    14 
   54     1         1.2919250000        92.0282976371        40.6227399715        -6.6567695344         0.0000000000         0.0000000000         0.0000000000         0.0000000000        24.5525366502    16 
   55     1         3.8757750000        79.6778742579        36.3302758665        -6.6332754422         0.0000000000        -0.0000000000         0.0000000000         0.0000000000        23.4187281954    14 
   56     1         1.2919250000        79.3250050185        38.1649663836        -6.6543609277         0.0000000000        -0.0000000000         0.0000000000         0.0000000000        23.4720132203    14 
   57     1         1.2919250000        81.4422204549        35.7189895888        -6.6329884407        -0.0000000000        -0.0000000000         0.0000000000         0.0000000000        23.4112885990    14 
   58     1         3.8757750000        93.4397745947        41.8717000542        -6.5399685987         0.0000000000        -0.0000000000         0.0000000000         0.0000000000        24.3433118072    15 
   59     1         3.8757750000        80.7364819761        39.3904812626        -6.6920550216         0.0000000000        -0.0000000000         0.0000000000         0.0000000000        23.6205619445    14 
   60     1         1.2919250000        95.2041207918        41.2443658219        -3.2316768924         0.0000000000        -0.0000000000         0.0000000000         0.0000000000        20.7954394496    14 
   61     1         3.8757750000        82.8536974126        36.9416451331        -6.6268184921         0.0000000000         0.0000000000         0.0000000000         0.0000000000        23.4300603078    14 
   62     1         1.2919250000        82.5008281731        38.7772711715        -6.6336136377         0.0000000000         0.0000000000         0.0000000000         0.0000000000        23.5182687468    14 
   63     1         3.8757750000        96.6155977494        42.5052560314        -6.0172921019        -0.0000000000        -0.0000000000         0.0000000000         0.0000000000        21.7943239415    13 
   64     1         3.8757750000        83.9123051308        40.0052774507        -6.6180538827        -0.0000000000         0.0000000000         0.0000000000         0.0000000000        25.0910295174    14 
   65     1         1.2919250000        83.5594358914        41.8717000542        -6.5296207964         0.0000000000         0.0000000000         0.0000000000         0.0000000000        26.4486280686    15 
   66     1         1.2919250000        85.6766513278        39.3904812626        -6.5786014192        -0.0000000000        -0.0000000000         0.0000000000         0.0000000000        23.5867134103    14 
   67     1         3.8757750000        87.0881282854        40.6227399715        -6.5339400143         0.0000000000         0.0000000000         0.0000000000         0.0000000000        25.0526989593    14 
   68     1         1.2919250000        86.7352590460        42.5052560314        -6.2070351270         0.0000000000        -0.0000000000         0.0000000000         0.0000000000        25.0078483127    13 
   69     1         1.2919250000        88.8524744825        40.0052774507        -6.6014088930         0.0000000000        -0.0000000000         0.0000000000         0.0000000000        25.0115775464    14 
   70     1         3.8757750000        90.2639514401        41.2443658219        -3.3212060377         0.0000000000        -0.0000000000         0.0000000000         0.0000000000        22.6092528362    14 
   71     1         3.8757750000         1.7643461970         0.6378655441        -6.4993132797         0.0000000000        -0.0000000000         0.0000000000         0.0000000000        24.1015335261    12 
   72     1         3.8757750000         4.9401693517         0.0000000000        -3.1712294412         0.0000000000         0.0000000000         0.0000000000         0.0000000000        21.1857411065    11 
   73     1         1.2919250000         3.5286923941         1.2714215214        -6.6136465070         0.0000000000         0.0000000000         0.0000000000         0.0000000000        25.8468950542    17 
   74     1         1.2919250000         6.7045155487         0.6378655441        -6.6820737649         0.0000000000         0.0000000000         0.0000000000         0.0000000000        24.9831298288    14 
   75     1         1.2919250000        95.8392854227        43.1431215760        -2.8868624049         0.0000000000        -0.0000000000         0.0000000000         0.0000000000        19.8668088834    11 
   76     1         3.8757750000         7.0573847881         2.5203816041        -6.6265599947        -0.0000000000         0.0000000000         0.0000000000         0.0000000000        24.6634777597    14 
   77     1         3.8757750000        10.2332079428         1.8987557536        -6.3489982720         0.0000000000         0.0000000000         0.0000000000         0.0000000000        23.2006948159    14 
   78     1         1.2919250000         8.8217309852         3.1378441249        -6.5980871479         0.0000000000         0.0000000000         0.0000000000         0.0000000000        23.6777472325    14 
   79     1         3.8757750000        13.4090310974         1.2714215214        -6.6239798650         0.0000000000         0.0000000000         0.0000000000         0.0000000000        27.5137324309    15 
   80     1         1.2919250000        11.9975541398         2.5203816041        -6.6242914938         0.0000000000         0.0000000000         0.0000000000         0.0000000000        24.5025718673    16 
   81     1         1.2919250000        15.1733772945         1.8987557536        -6.2830940427         0.0000000000         0.0000000000         0.0000000000         0.0000000000        22.7551663531    14 
   82     1         3.8757750000        23.9951082796         4.9781551920        -6.6346399856        -0.0000000000         0.0000000000         0.0000000000         0.0000000000        23.4840596407    14 
   83     1         3.8757750000        12.3504233792         4.3658504041        -6.6284954487        -0.0000000000        -0.0000000000         0.0000000000         0.0000000000        23.5389591185    14 
   84     1         1.2919250000        25.7594544766         5.5899549361        -6.6331718248         0.0000000000        -0.0000000000         0.0000000000         0.0000000000        23.4432241810    14 
   85     1         3.8757750000        15.5262465339         3.7526403130        -6.6159479554        -0.0000000000         0.0000000000         0.0000000000         0.0000000000        23.6205619445    14 
   86     1         1.2919250000        14.1147695762         4.9781551920        -6.6331653925         0.0000000000        -0.0000000000         0.0000000000         0.0000000000        23.4720132202    14 
   87     1         3.8757750000        18.7020696885         3.1378441249        -6.6188456112         0.0000000000         0.0000000000         0.0000000000         0.0000000000        23.7290798201    14 
   88     1         1.2919250000        17.2905927309         4.3658504041        -6.6111864987         0.0000000000         0.0000000000         0.0000000000         0.0000000000        23.5182687469    14 
   89     1         1.2919250000        20.4664158856         3.7526403130        -6.6488914205         0.0000000000         0.0000000000         0.0000000000         0.0000000000        23.5867134101    14 
   90     1         3.8757750000        14.4676388157         6.8128457091        -6.6332354349        -0.0000000000        -0.0000000000         0.0000000000         0.0000000000        23.4187281952    14 
   91     1         3.8757750000        17.6434619703         6.2014764425        -6.6326559563         0.0000000000         0.0000000000         0.0000000000         0.0000000000        23.4300603078    14 
   92     1         1.2919250000        16.2319850127         7.4241319867        -6.6329779354         0.0000000000        -0.0000000000         0.0000000000         0.0000000000        23.4112885990    14 
   93     1         3.8757750000        20.8192851250         5.5899549361        -6.6239723622        -0.0000000000         0.0000000000         0.0000000000         0.0000000000        23.4500310004    14 
   94     1         1.2919250000        19.4078081673         6.8128457091        -6.6320812368         0.0000000000         0.0000000000         0.0000000000         0.0000000000        23.4166515342    14 
   95     1         1.2919250000        22.5836313220         6.2014764425        -6.6307823127         0.0000000000         0.0000000000         0.0000000000         0.0000000000        23.4262815326    14 
   96     1         3.8757750000        31.4053623071         9.2577929861        -6.6345010960         0.0000000000         0.0000000000         0.0000000000         0.0000000000        23.4060715898    14 
   97     1         3.8757750000        19.7606774067         8.6465897137        -6.6343623682        -0.0000000000        -0.0000000000         0.0000000000         0.0000000000        23.4070881036    14 
   98     1         1.2919250000        33.1697085042         9.8689890247        -6.6344898671         0.0000000000        -0.0000000000         0.0000000000         0.0000000000        23.4054767578    14 
   99     1         3.8757750000        22.9365005614         8.0353731171        -6.6341219727         0.0000000000        -0.0000000000         0.0000000000         0.0000000000        23.4089686009    14 
  100     1         1.2919250000        21.5250236038         9.2577929861        -6.6343384345         0.0000000000         0.0000000000         0.0000000000         0.0000000000        23.4059106604    14 
  101     1         3.8757750000        26.1123237161         7.4241319867        -6.6337471145        -0.0000000000         0.0000000000         0.0000000000         0.0000000000        23.4124234055    14 
  102     1         1.2919250000        24.7008467584         8.6465897137        -6.6340703772         0.0000000000        -0.0000000000         0.0000000000         0.0000000000        23.4067542141    14 
  103     1         1.2919250000        27.8766699131         8.0353731171        -6.6336343561         0.0000000000        -0.0000000000         0.0000000000         0.0000000000        23.4083510902    14 
  104     1         3.8757750000        36.6984008982        11.0913796511        -6.6345662769        -0.0000000000         0.0000000000         0.0000000000         0.0000000000        23.4053071534    14 
  105     1         3.8757750000        25.0537159978        10.4801811367        -6.6345906825        -0.0000000000         0.0000000000         0.0000000000         0.0000000000        23.4053332332    14 
  106     1         1.2919250000        23.6422390402        11.7025717631        -6.6345708660         0.0000000000         0.0000000000         0.0000000000         0.0000000000        23.4055568992    14 
  107     1         3.8757750000        28.2295391525         9.8689890247        -6.6345708660         0.0000000000         0.0000000000         0.0000000000         0.0000000000        23.4055568993    14 
  108     1         1.2919250000        26.8180621949        11.0913796511        -6.6345906825         0.0000000000        -0.0000000000         0.0000000000         0.0000000000        23.4053332333    14 
  109     1         1.2919250000        29.9938853495        10.4801811367        -6.6345662769         0.0000000000        -0.0000000000         0.0000000000         0.0000000000        23.4053071536    14 
  110     1         3.8757750000        38.8156163347        13.5361876707        -6.6336343561         0.0000000000         0.0000000000         0.0000000000         0.0000000000        23.4083510903    14 
  111     1         3.8757750000        27.1709314343        12.9249710741        -6.6340703772        -0.0000000000        -0.0000000000         0.0000000000         0.0000000000        23.4067542139    14 
  112     1         1.2919250000        40.5799625317        14.1474288010        -6.6337471145         0.0000000000         0.0000000000         0.0000000000         0.0000000000        23.4124234055    14 
  113     1         3.8757750000        30.3467545889        12.3137678017        -6.6343384345        -0.0000000000         0.0000000000         0.0000000000         0.0000000000        23.4059106605    14 
  114     1         1.2919250000        28.9352776313        13.5361876707        -6.6341219727         0.0000000000         0.0000000000         0.0000000000         0.0000000000        23.4089686009    14 
  115     1         3.8757750000        33.5225777436        11.7025717631        -6.6344898671         0.0000000000         0.0000000000         0.0000000000         0.0000000000        23.4054767580    14 
  116     1         1.2919250000        32.1111007860        12.9249710741        -6.6343623682         0.0000000000        -0.0000000000         0.0000000000         0.0000000000        23.4070881037    14 
  117     1         1.2919250000        35.2869239406        12.3137678017        -6.6345010960         0.0000000000         0.0000000000         0.0000000000         0.0000000000        23.4060715897    14 
  118     1         3.8757750000        44.1086549258        15.3700843453        -6.6201920131        -0.0000000000         0.0000000000         0.0000000000         0.0000000000        23.4262815326    14 
  119     1         3.8757750000        32.4639700254        14.7587150787        -6.6359818276        -0.0000000000        -0.0000000000         0.0000000000         0.0000000000        23.4166515340    14 
  120     1         1.2919250000        45.8730011228        15.9816058517        -6.6259156672         0.0000000000         0.0000000000         0.0000000000         0.0000000000        23.4500310003    14 
  121     1         3.8757750000        35.6397931800        14.1474288010        -6.6329779354        -0.0000000000         0.0000000000         0.0000000000         0.0000000000        23.4112885991    14 
  122     1         1.2919250000        34.2283162224        15.3700843453        -6.6318112289         0.0000000000         0.0000000000         0.0000000000         0.0000000000        23.4300603077    14 
  123     1         1.2919250000        37.4041393770        14.7587150787        -6.6374093428         0.0000000000        -0.0000000000         0.0000000000         0.0000000000        23.4187281953    14 
  124     1         3.8757750000        46.2258703622        17.8189204748        -6.6070518658        -0.0000000000         0.0000000000         0.0000000000         0.0000000000        23.5867134101    14 
  125     1         3.8757750000        34.5811854618        17.2057103837        -6.6595222620         0.0000000000        -0.0000000000         0.0000000000         0.0000000000        23.5182687468    14 
  126     1         1.2919250000        47.9902165592        18.4337166629        -6.6587312117         0.0000000000         0.0000000000         0.0000000000         0.0000000000        25.3288087076    16 
  127     1         3.8757750000        37.7570086165        16.5934055958        -6.6699452378        -0.0000000000        -0.0000000000         0.0000000000         0.0000000000        23.4720132203    14 
  128     1         1.2919250000        36.3455316588        17.8189204748        -6.7132073732         0.0000000000         0.0000000000         0.0000000000         0.0000000000        23.6205619445    14 
  129     1         3.8757750000        40.9328317711        15.9816058517        -6.6212977165        -0.0000000000        -0.0000000000         0.0000000000         0.0000000000        23.4432241812    14 
  130     1         1.2919250000        39.5213548135        17.2057103837        -6.6394287642         0.0000000000        -0.0000000000         0.0000000000         0.0000000000        23.5389591187    14 
  131     1         1.2919250000        42.6971779681        16.5934055958        -6.5852281890         0.0000000000        -0.0000000000         0.0000000000         0.0000000000        23.4840596407    14 
  132     1         3.8757750000        51.5189089533        19.6728050341        -6.3754713702        -0.0000000000        -0.0000000000         0.0000000000         0.0000000000        22.6332286493    16 
  133     1         3.8757750000        39.8742240529        19.0511791837        -6.6399811614         0.0000000000         0.0000000000         0.0000000000         0.0000000000        26.1523609267    16 
  134     1         1.2919250000        53.2832551503        20.3001392664        18.5359639820         0.0000000000        -0.0000000000         0.0000000000         0.0000000000        18.7562433338    12 
  135     1         3.8757750000        43.0500472075        18.4337166629        -6.4958141038         0.0000000000         0.0000000000         0.0000000000         0.0000000000        25.3035113731    14 
  136     1         1.2919250000        41.6385702499        19.6728050341        -6.2761349669         0.0000000000        -0.0000000000         0.0000000000         0.0000000000        26.1214393604    14 
  137     1         1.2919250000        44.8143934046        19.0511791837        -6.4838176761         0.0000000000         0.0000000000         0.0000000000         0.0000000000        26.3735114870    16 
  138     1         3.8757750000        45.1672626440        20.9336952436        -6.4222591973         0.0000000000         0.0000000000         0.0000000000         0.0000000000        28.2620688379    16 
  139     1         3.8757750000        48.3430857986        20.3001392664        18.4930659593        -0.0000000000         0.0000000000         0.0000000000         0.0000000000        19.1536494453    12 
  140     1         1.2919250000        50.1074319957        20.9336952436        -6.4784214202         0.0000000000        -0.0000000000         0.0000000000         0.0000000000        23.4423364912    14 
