LAMMPS (11 Aug 2017)
OMP_NUM_THREADS environment is not set. Defaulting to 1 thread. (../comm.cpp:90)
  using 1 OpenMP thread(s) per MPI task
units        metal
dimension    3
boundary     p p p
box          tilt large
atom_style   atomic

read_data    atoms.lammps
  triclinic box = (0 0 0) to (5.1677 14.8205 43.1431) with tilt (2e-015 1.1e-014 85.9589)
WARNING: Triclinic box skew is large (../domain.cpp:197)
  1 by 1 by 1 MPI processor grid
  reading atoms ...
  140 atoms

pair_style eam/fs
pair_coeff * * "C:\Users\adamj\dropbox\code_db\supporting_manuscript_code\first-principles-zr-grain-boundaries\data\potential\Zr_3.eam.fs" Zr


compute peatom all pe/atom
compute datom all displace/atom
compute voratom all voronoi/atom

thermo_style custom step atoms pe ke etotal fmax
thermo_modify format float %20.10f
thermo 1

dump 1 all custom 100 dump.*.txt id type x y z c_peatom c_datom[1] c_datom[2] c_datom[3] c_datom[4] c_voratom[1] c_voratom[2]
dump_modify 1 format line "%5d %5d %20.10f %20.10f %20.10f %20.10f %20.10f %20.10f %20.10f %20.10f %20.10f %5.f"

min_style cg
minimize 0.0 1.0e-6 10000 100000
WARNING: Using 'neigh_modify every 1 delay 0 check yes' setting during minimization (../min.cpp:168)
Neighbor list info ...
  update every 1 steps, delay 0 steps, check yes
  max neighbors/atom: 2000, page size: 100000
  master list distance cutoff = 9.6
  ghost atom cutoff = 9.6
  binsize = 4.8, bins = 2 21 9
  1 neighbor lists, perpetual/occasional/extra = 1 0 0
  (1) pair eam/fs, perpetual
      attributes: half, newton on
      pair build: half/bin/newton/tri
      stencil: half/bin/3d/newton/tri
      bin: standard
Per MPI rank memory allocation (min/avg/max) = 6.837 | 6.837 | 6.837 Mbytes
Step Atoms PotEng KinEng TotEng Fmax 
       0      140      -809.6646864541         0.0000000000      -809.6646864541       153.7509786935 
       1      140      -858.3329335994         0.0000000000      -858.3329335994        73.1320999353 
       2      140      -884.5448173762         0.0000000000      -884.5448173762        39.8752119457 
       3      140      -901.0530676748         0.0000000000      -901.0530676748        23.5428532991 
       4      140      -911.8616172216         0.0000000000      -911.8616172216        13.6113809508 
       5      140      -917.0305829350         0.0000000000      -917.0305829350         3.1781401591 
       6      140      -918.4189669139         0.0000000000      -918.4189669139         1.4181259288 
       7      140      -919.6233553206         0.0000000000      -919.6233553206         0.7658691249 
       8      140      -920.0867862613         0.0000000000      -920.0867862613         0.7224187317 
       9      140      -920.3249732689         0.0000000000      -920.3249732689         0.5722787321 
      10      140      -920.4639655342         0.0000000000      -920.4639655342         0.1611780380 
      11      140      -920.5162815569         0.0000000000      -920.5162815569         0.1781438277 
      12      140      -920.5444446678         0.0000000000      -920.5444446678         0.1066360687 
      13      140      -920.5635765616         0.0000000000      -920.5635765616         0.1011223615 
      14      140      -920.5844637635         0.0000000000      -920.5844637635         0.1286489907 
      15      140      -920.6253442854         0.0000000000      -920.6253442854         0.1310733067 
      16      140      -920.6901214989         0.0000000000      -920.6901214989         0.1337559962 
      17      140      -920.7970220374         0.0000000000      -920.7970220374         0.1565347873 
      18      140      -920.9148994844         0.0000000000      -920.9148994844         0.2329772544 
      19      140      -921.0547171694         0.0000000000      -921.0547171694         0.2091368138 
      20      140      -921.1894618845         0.0000000000      -921.1894618845         0.1852590249 
      21      140      -921.3249989394         0.0000000000      -921.3249989394         0.1523910210 
      22      140      -921.4117408548         0.0000000000      -921.4117408548         0.1870683482 
      23      140      -921.4893929955         0.0000000000      -921.4893929955         0.2404229093 
      24      140      -921.5930385168         0.0000000000      -921.5930385168         0.3009292839 
      25      140      -921.6876366669         0.0000000000      -921.6876366669         0.3555193410 
      26      140      -921.7753028044         0.0000000000      -921.7753028044         0.3169986261 
      27      140      -921.8430923674         0.0000000000      -921.8430923674         0.2118344272 
      28      140      -921.8727261755         0.0000000000      -921.8727261755         0.2127325975 
      29      140      -921.8996397143         0.0000000000      -921.8996397143         0.1527853242 
      30      140      -921.9126799777         0.0000000000      -921.9126799777         0.1023960142 
      31      140      -921.9277277841         0.0000000000      -921.9277277841         0.1146367905 
      32      140      -921.9472374037         0.0000000000      -921.9472374037         0.1053952572 
      33      140      -921.9793029816         0.0000000000      -921.9793029816         0.1273634000 
      34      140      -922.0024801279         0.0000000000      -922.0024801279         0.1303971475 
      35      140      -922.0324053149         0.0000000000      -922.0324053149         0.1674462929 
      36      140      -922.0686505467         0.0000000000      -922.0686505467         0.1407178336 
      37      140      -922.0948383237         0.0000000000      -922.0948383237         0.1183355420 
      38      140      -922.1116754233         0.0000000000      -922.1116754233         0.1235278741 
      39      140      -922.1285749251         0.0000000000      -922.1285749251         0.0850274344 
      40      140      -922.1488924949         0.0000000000      -922.1488924949         0.1230978850 
      41      140      -922.1801209884         0.0000000000      -922.1801209884         0.2141160575 
      42      140      -922.2226297470         0.0000000000      -922.2226297470         0.2885431371 
      43      140      -922.2677524159         0.0000000000      -922.2677524159         0.2472406751 
      44      140      -922.3042538593         0.0000000000      -922.3042538593         0.1314880334 
      45      140      -922.3201666230         0.0000000000      -922.3201666230         0.1605635064 
      46      140      -922.3341014984         0.0000000000      -922.3341014984         0.1278359146 
      47      140      -922.3401256895         0.0000000000      -922.3401256895         0.0660388578 
      48      140      -922.3426721552         0.0000000000      -922.3426721552         0.0414038747 
      49      140      -922.3443335841         0.0000000000      -922.3443335841         0.0362885282 
      50      140      -922.3459891362         0.0000000000      -922.3459891362         0.0250136438 
      51      140      -922.3473701546         0.0000000000      -922.3473701546         0.0251187182 
      52      140      -922.3485246646         0.0000000000      -922.3485246646         0.0292056113 
      53      140      -922.3493844995         0.0000000000      -922.3493844995         0.0139763428 
      54      140      -922.3501118350         0.0000000000      -922.3501118350         0.0136991652 
      55      140      -922.3506276962         0.0000000000      -922.3506276962         0.0158214198 
      56      140      -922.3509850642         0.0000000000      -922.3509850642         0.0168341572 
      57      140      -922.3513048689         0.0000000000      -922.3513048689         0.0125198283 
      58      140      -922.3515701889         0.0000000000      -922.3515701889         0.0105465250 
      59      140      -922.3517994408         0.0000000000      -922.3517994408         0.0105629598 
      60      140      -922.3519554256         0.0000000000      -922.3519554256         0.0092506057 
      61      140      -922.3521077300         0.0000000000      -922.3521077300         0.0075542683 
      62      140      -922.3522931927         0.0000000000      -922.3522931927         0.0139279121 
      63      140      -922.3525423212         0.0000000000      -922.3525423212         0.0159798561 
      64      140      -922.3529947176         0.0000000000      -922.3529947176         0.0169953220 
      65      140      -922.3554647430         0.0000000000      -922.3554647430         0.0584575719 
      66      140      -922.3585394213         0.0000000000      -922.3585394213         0.0623590802 
      67      140      -922.3628951437         0.0000000000      -922.3628951437         0.0956167622 
      68      140      -922.3691183445         0.0000000000      -922.3691183445         0.0551427117 
      69      140      -922.3745505488         0.0000000000      -922.3745505488         0.0493575374 
      70      140      -922.3801348983         0.0000000000      -922.3801348983         0.0520054877 
      71      140      -922.3851248309         0.0000000000      -922.3851248309         0.0664436067 
      72      140      -922.3907074882         0.0000000000      -922.3907074882         0.0613879632 
      73      140      -922.3962325865         0.0000000000      -922.3962325865         0.0641633269 
      74      140      -922.4012916570         0.0000000000      -922.4012916570         0.0563837051 
      75      140      -922.4049859418         0.0000000000      -922.4049859418         0.0494231298 
      76      140      -922.4081566104         0.0000000000      -922.4081566104         0.0535587089 
      77      140      -922.4118296554         0.0000000000      -922.4118296554         0.0328023104 
      78      140      -922.4162056869         0.0000000000      -922.4162056869         0.0492056060 
      79      140      -922.4205578135         0.0000000000      -922.4205578135         0.0466936409 
      80      140      -922.4250673021         0.0000000000      -922.4250673021         0.0467881252 
      81      140      -922.4282644213         0.0000000000      -922.4282644213         0.0492629770 
      82      140      -922.4303808532         0.0000000000      -922.4303808532         0.0329850004 
      83      140      -922.4321748643         0.0000000000      -922.4321748643         0.0376826799 
      84      140      -922.4335914180         0.0000000000      -922.4335914180         0.0334454802 
      85      140      -922.4345568207         0.0000000000      -922.4345568207         0.0262487214 
      86      140      -922.4352762038         0.0000000000      -922.4352762038         0.0213446456 
      87      140      -922.4357843764         0.0000000000      -922.4357843764         0.0207121196 
      88      140      -922.4360852980         0.0000000000      -922.4360852980         0.0149726317 
      89      140      -922.4362771387         0.0000000000      -922.4362771387         0.0115746637 
      90      140      -922.4364160299         0.0000000000      -922.4364160299         0.0070110003 
      91      140      -922.4365326428         0.0000000000      -922.4365326428         0.0055434817 
      92      140      -922.4366078978         0.0000000000      -922.4366078978         0.0050793266 
      93      140      -922.4366491784         0.0000000000      -922.4366491784         0.0044352595 
      94      140      -922.4366807360         0.0000000000      -922.4366807360         0.0036538492 
      95      140      -922.4367115061         0.0000000000      -922.4367115061         0.0037699929 
      96      140      -922.4367396948         0.0000000000      -922.4367396948         0.0039186637 
      97      140      -922.4367620100         0.0000000000      -922.4367620100         0.0035447581 
      98      140      -922.4367791553         0.0000000000      -922.4367791553         0.0026571407 
      99      140      -922.4367934429         0.0000000000      -922.4367934429         0.0022389219 
     100      140      -922.4368060922         0.0000000000      -922.4368060922         0.0021095678 
     101      140      -922.4368205906         0.0000000000      -922.4368205906         0.0023293937 
     102      140      -922.4368341442         0.0000000000      -922.4368341442         0.0025968540 
     103      140      -922.4368473826         0.0000000000      -922.4368473826         0.0035612473 
     104      140      -922.4368622905         0.0000000000      -922.4368622905         0.0034365282 
     105      140      -922.4368760835         0.0000000000      -922.4368760835         0.0024518537 
     106      140      -922.4368904733         0.0000000000      -922.4368904733         0.0024546945 
     107      140      -922.4369053385         0.0000000000      -922.4369053385         0.0029060575 
     108      140      -922.4369197196         0.0000000000      -922.4369197196         0.0033307908 
     109      140      -922.4369335713         0.0000000000      -922.4369335713         0.0030195962 
     110      140      -922.4369459092         0.0000000000      -922.4369459092         0.0019300856 
     111      140      -922.4369555850         0.0000000000      -922.4369555850         0.0018186011 
     112      140      -922.4369634002         0.0000000000      -922.4369634002         0.0019542006 
     113      140      -922.4369725725         0.0000000000      -922.4369725725         0.0025969750 
     114      140      -922.4369843188         0.0000000000      -922.4369843188         0.0035718351 
     115      140      -922.4369948610         0.0000000000      -922.4369948610         0.0033399237 
     116      140      -922.4370042106         0.0000000000      -922.4370042106         0.0021736315 
     117      140      -922.4370111086         0.0000000000      -922.4370111086         0.0016228437 
     118      140      -922.4370169031         0.0000000000      -922.4370169031         0.0014818257 
     119      140      -922.4370218659         0.0000000000      -922.4370218659         0.0015758254 
     120      140      -922.4370266968         0.0000000000      -922.4370266968         0.0011699121 
     121      140      -922.4370315774         0.0000000000      -922.4370315774         0.0015776469 
     122      140      -922.4370358515         0.0000000000      -922.4370358515         0.0012030654 
     123      140      -922.4370403834         0.0000000000      -922.4370403834         0.0014271737 
     124      140      -922.4370435789         0.0000000000      -922.4370435789         0.0015233443 
     125      140      -922.4370458522         0.0000000000      -922.4370458522         0.0016645030 
     126      140      -922.4370476618         0.0000000000      -922.4370476618         0.0009638731 
     127      140      -922.4370492250         0.0000000000      -922.4370492250         0.0007753328 
     128      140      -922.4370508934         0.0000000000      -922.4370508934         0.0008875563 
     129      140      -922.4370523362         0.0000000000      -922.4370523362         0.0008826003 
     130      140      -922.4370534534         0.0000000000      -922.4370534534         0.0007464264 
     131      140      -922.4370543118         0.0000000000      -922.4370543118         0.0006451183 
     132      140      -922.4370549232         0.0000000000      -922.4370549232         0.0005043216 
     133      140      -922.4370554366         0.0000000000      -922.4370554366         0.0004855264 
     134      140      -922.4370559591         0.0000000000      -922.4370559591         0.0006620875 
     135      140      -922.4370565314         0.0000000000      -922.4370565314         0.0004433968 
     136      140      -922.4370570957         0.0000000000      -922.4370570957         0.0005731312 
     137      140      -922.4370576745         0.0000000000      -922.4370576745         0.0005122823 
     138      140      -922.4370582658         0.0000000000      -922.4370582658         0.0005374770 
     139      140      -922.4370589734         0.0000000000      -922.4370589734         0.0005140877 
     140      140      -922.4370597011         0.0000000000      -922.4370597011         0.0008632351 
     141      140      -922.4370603638         0.0000000000      -922.4370603638         0.0008448838 
     142      140      -922.4370609141         0.0000000000      -922.4370609141         0.0006441120 
     143      140      -922.4370615161         0.0000000000      -922.4370615161         0.0004822126 
     144      140      -922.4370623658         0.0000000000      -922.4370623658         0.0005942629 
     145      140      -922.4370635526         0.0000000000      -922.4370635526         0.0008076945 
     146      140      -922.4370648460         0.0000000000      -922.4370648460         0.0009464581 
     147      140      -922.4370659124         0.0000000000      -922.4370659124         0.0008100203 
     148      140      -922.4370668639         0.0000000000      -922.4370668639         0.0006911011 
     149      140      -922.4370675860         0.0000000000      -922.4370675860         0.0005871770 
     150      140      -922.4370682143         0.0000000000      -922.4370682143         0.0005180492 
     151      140      -922.4370688625         0.0000000000      -922.4370688625         0.0006036477 
     152      140      -922.4370697686         0.0000000000      -922.4370697686         0.0005758785 
     153      140      -922.4370711614         0.0000000000      -922.4370711614         0.0007667546 
     154      140      -922.4370727816         0.0000000000      -922.4370727816         0.0008666489 
     155      140      -922.4370747388         0.0000000000      -922.4370747388         0.0012037475 
     156      140      -922.4370771271         0.0000000000      -922.4370771271         0.0013580358 
     157      140      -922.4370790072         0.0000000000      -922.4370790072         0.0014429621 
     158      140      -922.4370811794         0.0000000000      -922.4370811794         0.0015128594 
     159      140      -922.4370843823         0.0000000000      -922.4370843823         0.0013562089 
     160      140      -922.4370917898         0.0000000000      -922.4370917898         0.0023991091 
     161      140      -922.4371122329         0.0000000000      -922.4371122329         0.0020316378 
     162      140      -922.4371668304         0.0000000000      -922.4371668304         0.0035666158 
     163      140      -922.4371940035         0.0000000000      -922.4371940035         0.0028124254 
     164      140      -922.4372125900         0.0000000000      -922.4372125900         0.0024461084 
     165      140      -922.4372254839         0.0000000000      -922.4372254839         0.0030224588 
     166      140      -922.4372389796         0.0000000000      -922.4372389796         0.0015866879 
     167      140      -922.4372454687         0.0000000000      -922.4372454687         0.0012058679 
     168      140      -922.4372496041         0.0000000000      -922.4372496041         0.0015473982 
     169      140      -922.4372534460         0.0000000000      -922.4372534460         0.0013545093 
     170      140      -922.4372567753         0.0000000000      -922.4372567753         0.0008854432 
     171      140      -922.4372597737         0.0000000000      -922.4372597737         0.0008973038 
     172      140      -922.4372630419         0.0000000000      -922.4372630419         0.0012477181 
     173      140      -922.4372671025         0.0000000000      -922.4372671025         0.0014185443 
     174      140      -922.4372711836         0.0000000000      -922.4372711836         0.0012838717 
     175      140      -922.4372745972         0.0000000000      -922.4372745972         0.0008357543 
     176      140      -922.4372774413         0.0000000000      -922.4372774413         0.0011440415 
     177      140      -922.4372795682         0.0000000000      -922.4372795682         0.0018257189 
     178      140      -922.4372813870         0.0000000000      -922.4372813870         0.0011309768 
     179      140      -922.4372832055         0.0000000000      -922.4372832055         0.0007035366 
     180      140      -922.4372849714         0.0000000000      -922.4372849714         0.0005558557 
     181      140      -922.4372865623         0.0000000000      -922.4372865623         0.0005300673 
     182      140      -922.4372882478         0.0000000000      -922.4372882478         0.0008939130 
     183      140      -922.4372906709         0.0000000000      -922.4372906709         0.0010803041 
     184      140      -922.4372942692         0.0000000000      -922.4372942692         0.0015190566 
     185      140      -922.4373002044         0.0000000000      -922.4373002044         0.0014591434 
     186      140      -922.4373087091         0.0000000000      -922.4373087091         0.0015097889 
     187      140      -922.4373192623         0.0000000000      -922.4373192623         0.0029553175 
     188      140      -922.4373344180         0.0000000000      -922.4373344180         0.0025168659 
     189      140      -922.4373523618         0.0000000000      -922.4373523618         0.0028132858 
     190      140      -922.4373677406         0.0000000000      -922.4373677406         0.0033964258 
     191      140      -922.4373803056         0.0000000000      -922.4373803056         0.0032063086 
     192      140      -922.4373923134         0.0000000000      -922.4373923134         0.0024603357 
     193      140      -922.4374027374         0.0000000000      -922.4374027374         0.0010692262 
     194      140      -922.4374079330         0.0000000000      -922.4374079330         0.0008950709 
     195      140      -922.4374102651         0.0000000000      -922.4374102651         0.0008674959 
     196      140      -922.4374113303         0.0000000000      -922.4374113303         0.0010666421 
     197      140      -922.4374118793         0.0000000000      -922.4374118793         0.0008177382 
     198      140      -922.4374122351         0.0000000000      -922.4374122351         0.0004200607 
     199      140      -922.4374124717         0.0000000000      -922.4374124717         0.0002078166 
     200      140      -922.4374125993         0.0000000000      -922.4374125993         0.0002543987 
     201      140      -922.4374126730         0.0000000000      -922.4374126730         0.0002154788 
     202      140      -922.4374127204         0.0000000000      -922.4374127204         0.0001588619 
     203      140      -922.4374127543         0.0000000000      -922.4374127543         0.0001510615 
     204      140      -922.4374127766         0.0000000000      -922.4374127766         0.0001753463 
     205      140      -922.4374127942         0.0000000000      -922.4374127942         0.0001028933 
     206      140      -922.4374128149         0.0000000000      -922.4374128149         0.0000999879 
     207      140      -922.4374128363         0.0000000000      -922.4374128363         0.0000928480 
     208      140      -922.4374128591         0.0000000000      -922.4374128591         0.0000959256 
     209      140      -922.4374128837         0.0000000000      -922.4374128837         0.0001232363 
     210      140      -922.4374129065         0.0000000000      -922.4374129065         0.0001009889 
     211      140      -922.4374129300         0.0000000000      -922.4374129300         0.0001015554 
     212      140      -922.4374129519         0.0000000000      -922.4374129519         0.0000822439 
     213      140      -922.4374129704         0.0000000000      -922.4374129704         0.0000942829 
     214      140      -922.4374129858         0.0000000000      -922.4374129858         0.0001111397 
     215      140      -922.4374130016         0.0000000000      -922.4374130016         0.0000661495 
     216      140      -922.4374130194         0.0000000000      -922.4374130194         0.0000643019 
     217      140      -922.4374130386         0.0000000000      -922.4374130386         0.0000904870 
     218      140      -922.4374130608         0.0000000000      -922.4374130608         0.0001184671 
     219      140      -922.4374130897         0.0000000000      -922.4374130897         0.0001171943 
     220      140      -922.4374131372         0.0000000000      -922.4374131372         0.0001717757 
     221      140      -922.4374131913         0.0000000000      -922.4374131913         0.0002514972 
     222      140      -922.4374132678         0.0000000000      -922.4374132678         0.0001697779 
     223      140      -922.4374133412         0.0000000000      -922.4374133412         0.0001204822 
     224      140      -922.4374134140         0.0000000000      -922.4374134140         0.0001438256 
     225      140      -922.4374134859         0.0000000000      -922.4374134859         0.0001416330 
     226      140      -922.4374135325         0.0000000000      -922.4374135325         0.0001622784 
     227      140      -922.4374135662         0.0000000000      -922.4374135662         0.0001332722 
     228      140      -922.4374135932         0.0000000000      -922.4374135932         0.0000925819 
     229      140      -922.4374136182         0.0000000000      -922.4374136182         0.0000796971 
     230      140      -922.4374136432         0.0000000000      -922.4374136432         0.0001179560 
     231      140      -922.4374136655         0.0000000000      -922.4374136655         0.0000858164 
     232      140      -922.4374136889         0.0000000000      -922.4374136889         0.0001063733 
     233      140      -922.4374137101         0.0000000000      -922.4374137101         0.0000911660 
     234      140      -922.4374137265         0.0000000000      -922.4374137265         0.0000958770 
     235      140      -922.4374137381         0.0000000000      -922.4374137381         0.0000730447 
     236      140      -922.4374137454         0.0000000000      -922.4374137454         0.0000515529 
     237      140      -922.4374137500         0.0000000000      -922.4374137500         0.0000615300 
     238      140      -922.4374137531         0.0000000000      -922.4374137531         0.0000397128 
     239      140      -922.4374137551         0.0000000000      -922.4374137551         0.0000231684 
     240      140      -922.4374137566         0.0000000000      -922.4374137566         0.0000183262 
     241      140      -922.4374137574         0.0000000000      -922.4374137574         0.0000104265 
     242      140      -922.4374137579         0.0000000000      -922.4374137579         0.0000122782 
     243      140      -922.4374137581         0.0000000000      -922.4374137581         0.0000130851 
     244      140      -922.4374137583         0.0000000000      -922.4374137583         0.0000112949 
     245      140      -922.4374137583         0.0000000000      -922.4374137583         0.0000058772 
     246      140      -922.4374137584         0.0000000000      -922.4374137584         0.0000038293 
     247      140      -922.4374137585         0.0000000000      -922.4374137585         0.0000042287 
     248      140      -922.4374137585         0.0000000000      -922.4374137585         0.0000051691 
     249      140      -922.4374137586         0.0000000000      -922.4374137586         0.0000066584 
     250      140      -922.4374137587         0.0000000000      -922.4374137587         0.0000095216 
     251      140      -922.4374137588         0.0000000000      -922.4374137588         0.0000100300 
     252      140      -922.4374137590         0.0000000000      -922.4374137590         0.0000126096 
     253      140      -922.4374137592         0.0000000000      -922.4374137592         0.0000117258 
     254      140      -922.4374137597         0.0000000000      -922.4374137597         0.0000115288 
     255      140      -922.4374137602         0.0000000000      -922.4374137602         0.0000099482 
     256      140      -922.4374137608         0.0000000000      -922.4374137608         0.0000207068 
     257      140      -922.4374137612         0.0000000000      -922.4374137612         0.0000202405 
     258      140      -922.4374137616         0.0000000000      -922.4374137616         0.0000105832 
     259      140      -922.4374137619         0.0000000000      -922.4374137619         0.0000075812 
     260      140      -922.4374137621         0.0000000000      -922.4374137621         0.0000104872 
     261      140      -922.4374137623         0.0000000000      -922.4374137623         0.0000090508 
     262      140      -922.4374137625         0.0000000000      -922.4374137625         0.0000088597 
     263      140      -922.4374137627         0.0000000000      -922.4374137627         0.0000088142 
     264      140      -922.4374137629         0.0000000000      -922.4374137629         0.0000067652 
     265      140      -922.4374137631         0.0000000000      -922.4374137631         0.0000084629 
     266      140      -922.4374137633         0.0000000000      -922.4374137633         0.0000124757 
     267      140      -922.4374137635         0.0000000000      -922.4374137635         0.0000114839 
     268      140      -922.4374137636         0.0000000000      -922.4374137636         0.0000082054 
     269      140      -922.4374137637         0.0000000000      -922.4374137637         0.0000060123 
     270      140      -922.4374137638         0.0000000000      -922.4374137638         0.0000058235 
     271      140      -922.4374137639         0.0000000000      -922.4374137639         0.0000032157 
     272      140      -922.4374137639         0.0000000000      -922.4374137639         0.0000024643 
     273      140      -922.4374137639         0.0000000000      -922.4374137639         0.0000031162 
     274      140      -922.4374137639         0.0000000000      -922.4374137639         0.0000027985 
     275      140      -922.4374137639         0.0000000000      -922.4374137639         0.0000015357 
     276      140      -922.4374137640         0.0000000000      -922.4374137640         0.0000013518 
     277      140      -922.4374137640         0.0000000000      -922.4374137640         0.0000009982 
     278      140      -922.4374137640         0.0000000000      -922.4374137640         0.0000011353 
     279      140      -922.4374137640         0.0000000000      -922.4374137640         0.0000012597 
     280      140      -922.4374137640         0.0000000000      -922.4374137640         0.0000012314 
     281      140      -922.4374137640         0.0000000000      -922.4374137640         0.0000012249 
     282      140      -922.4374137640         0.0000000000      -922.4374137640         0.0000009846 
     283      140      -922.4374137640         0.0000000000      -922.4374137640         0.0000007782 
     284      140      -922.4374137640         0.0000000000      -922.4374137640         0.0000005643 
     285      140      -922.4374137640         0.0000000000      -922.4374137640         0.0000004557 
     286      140      -922.4374137640         0.0000000000      -922.4374137640         0.0000004394 
     287      140      -922.4374137640         0.0000000000      -922.4374137640         0.0000004464 
     288      140      -922.4374137640         0.0000000000      -922.4374137640         0.0000003101 
     289      140      -922.4374137640         0.0000000000      -922.4374137640         0.0000005239 
     290      140      -922.4374137640         0.0000000000      -922.4374137640         0.0000009804 
     291      140      -922.4374137640         0.0000000000      -922.4374137640         0.0000007701 
     292      140      -922.4374137640         0.0000000000      -922.4374137640         0.0000005026 
     293      140      -922.4374137640         0.0000000000      -922.4374137640         0.0000005543 
     294      140      -922.4374137640         0.0000000000      -922.4374137640         0.0000006563 
     295      140      -922.4374137640         0.0000000000      -922.4374137640         0.0000013975 
     296      140      -922.4374137640         0.0000000000      -922.4374137640         0.0000017727 
     297      140      -922.4374137640         0.0000000000      -922.4374137640         0.0000023372 
     298      140      -922.4374137640         0.0000000000      -922.4374137640         0.0000013076 
     299      140      -922.4374137640         0.0000000000      -922.4374137640         0.0000012891 
     300      140      -922.4374137640         0.0000000000      -922.4374137640         0.0000012690 
     301      140      -922.4374137640         0.0000000000      -922.4374137640         0.0000006519 
     302      140      -922.4374137640         0.0000000000      -922.4374137640         0.0000004370 
     303      140      -922.4374137640         0.0000000000      -922.4374137640         0.0000003958 
     304      140      -922.4374137640         0.0000000000      -922.4374137640         0.0000004488 
     305      140      -922.4374137640         0.0000000000      -922.4374137640         0.0000002527 
Loop time of 0.526014 on 1 procs for 305 steps with 140 atoms

95.1% CPU use with 1 MPI tasks x 1 OpenMP threads

Minimization stats:
  Stopping criterion = force tolerance
  Energy initial, next-to-last, final = 
        -809.664686454     -922.437413764     -922.437413764
  Force two-norm initial, final = 326.604 9.69952e-007
  Force max component initial, final = 153.751 2.52702e-007
  Final line search alpha, max atom move = 1 2.52702e-007
  Iterations, force evaluations = 305 581

MPI task timing breakdown:
Section |  min time  |  avg time  |  max time  |%varavg| %total
---------------------------------------------------------------
Pair    | 0.225      | 0.225      | 0.225      |   0.0 | 42.77
Neigh   | 0.0020008  | 0.0020008  | 0.0020008  |   0.0 |  0.38
Comm    | 0.0080013  | 0.0080013  | 0.0080013  |   0.0 |  1.52
Output  | 0.219      | 0.219      | 0.219      |   0.0 | 41.63
Modify  | 0          | 0          | 0          |   0.0 |  0.00
Other   |            | 0.07202    |            |       | 13.69

Nlocal:    140 ave 140 max 140 min
Histogram: 1 0 0 0 0 0 0 0 0 0
Nghost:    3795 ave 3795 max 3795 min
Histogram: 1 0 0 0 0 0 0 0 0 0
Neighs:    10442 ave 10442 max 10442 min
Histogram: 1 0 0 0 0 0 0 0 0 0

Total # of neighbors = 10442
Ave neighs/atom = 74.5857
Neighbor list builds = 3
Dangerous builds = 0
Total wall time: 0:00:00
