Header

248 atoms
1 atom types

0.0    5.167700000 xlo xhi
0.0   18.006706726 ylo yhi
0.0   62.677061852 zlo zhi

0.000000000000001        5.167700000000005        -18.006706725828582      xy xz yz

Atoms

       1    1       6.459625000000004       -7.260768841059915       32.033501712163293
       2    1       3.875775000000003       -8.712922609271898       33.237535644359419
       3    1       6.459625000000003       -4.066030550993552       31.512484518336930
       4    1       3.875775000000004       -5.518184319205536       32.723882167859905
       5    1       3.875775000000004       -2.323446029139174       32.206651557966481
       6    1       3.875775000000004        0.871292260927186       31.686350939639979
       7    1       6.459625000000004       -8.422491855629499       35.098838722042181
       8    1       3.875775000000003       -9.874645623841483       36.275108353483787
       9    1       6.459625000000004       -5.227753565563140       34.593501303554710
      10    1       3.875775000000004       -6.679907333775117       35.771324885962436
      11    1       6.459625000000004       -2.033015275496779       34.086816672478946
      12    1       3.875775000000004       -3.485169043708759       35.267072046976317
      13    1       6.459625000000004        1.161723014569581       33.578138204967509
      14    1       3.875775000000004       -0.290430753642398       34.762069807589640
      15    1       6.459625000000004        4.356461304635941       33.066705768582587
      16    1       3.875775000000004        2.904307536423959       34.255897760139298
      17    1       6.459625000000004        7.551199594702303       32.551866491686042
      18    1       3.875775000000004        6.099045826490319       33.747965340369369
      19    1       6.459625000000005        5.227753565563126       38.623671935561212
      20    1       6.459625000000004       -9.584214870199087       38.120558791559397
      21    1       3.875775000000004      -11.036368638411066       39.294447136176849
      22    1       6.459625000000003       -6.389476580132722       37.617398520224967
      23    1       3.875775000000004       -7.841630348344709       38.791369297935411
      24    1       6.459625000000004       -3.194738290066365       37.114160576812935
      25    1       3.875775000000004       -4.646892058278349       38.288267300297946
      26    1       6.459625000000004       -0.000000000000004       36.610794903061688
      27    1       3.875775000000004       -1.452153768211989       37.785125418646260
      28    1       6.459625000000004        3.194738290066355       36.107219946288183
      29    1       3.875775000000004        1.742584521854372       37.281917768405535
      30    1       6.459625000000005        6.389476580132715       35.603304146459095
      31    1       3.875775000000004        4.937322811920732       36.778601869255233
      32    1       6.459625000000004        4.066030550993544       41.642022208996870
      33    1       3.875775000000005        2.613876782781560       42.815787868766030
      34    1       6.459625000000004      -10.745937884768670       41.138977845379159
      35    1       3.875775000000006        5.808615072847918       42.312745952041745
      36    1       6.459625000000004       -7.551199594702309       40.635931166423660
      37    1       3.875775000000004       -9.003353362914293       41.809703319285582
      38    1       6.459625000000003       -4.356461304635948       40.132880659132717
      39    1       3.875775000000004       -5.808615072847933       41.306659502458054
      40    1       6.459625000000004       -1.161723014569596       39.629823822502210
      41    1       3.875775000000004       -2.613876782781576       40.803613727648056
      42    1       6.459625000000004        2.033015275496771       39.126756523533935
      43    1       3.875775000000004        0.580861507284788       40.300564715294847
      44    1       3.875775000000004        3.775599797351145       39.797510350124327
      45    1       6.459625000000004        2.904307536423956       44.660272291128329
      46    1       3.875775000000005        1.452153768211976       45.834034390704581
      47    1       6.459625000000004      -11.907660899338259       44.157231296554663
      48    1       3.875775000000005        4.646892058278335       45.330993515766330
      49    1       6.459625000000004       -8.712922609271901       43.654190188763835
      50    1       3.875775000000004      -10.165076377483880       44.827952605820862
      51    1       6.459625000000004       -5.518184319205536       43.151148893742459
      52    1       3.875775000000004       -6.970338087417516       44.324911637982595
      53    1       6.459625000000004       -2.323446029139178       42.648107289094199
      54    1       3.875775000000005       -3.775599797351160       43.821870574404961
      55    1       6.459625000000004        0.871292260927184       42.145065172414228
      56    1       3.875775000000004       -0.580861507284797       43.318829352500174
      57    1       6.459625000000004        1.742584521854374       47.678517533907609
      58    1       9.043475000000003        0.290430753642395       48.852279561141451
      59    1       6.459625000000003      -13.069383913907842       47.175476692938275
      60    1       9.043475000000004        3.485169043708745       48.349238676427383
      61    1       6.459625000000005       -9.874645623841483       46.672435806179472
      62    1       9.043475000000004      -11.326799392053468       47.846197816746326
      63    1       6.459625000000004       -6.679907333775119       46.169394961635604
      64    1       9.043475000000003       -8.132061101987105       47.343156972202465
      65    1       6.459625000000004       -3.485169043708763       45.666354101954539
      66    1       3.875775000000004       -4.937322811920744       46.840116085443647
      67    1       6.459625000000004       -0.290430753642401       45.163313217240471
      68    1       3.875775000000004       -1.742584521854387       46.337075244474306
      69    1       6.459625000000004        0.580861507284784       50.696763425881748
      70    1       9.043475000000004       -0.871292260927194       51.870527605967673
      71    1       6.459625000000004      -14.231106928477429       50.193722203976968
      72    1       9.043475000000004        2.323446029139166       51.367485489287724
      73    1       6.459625000000004      -11.036368638411066       49.690681140399327
      74    1       9.043475000000003      -12.488522406623050       50.864443884639471
      75    1       6.459625000000004       -7.841630348344707       49.187640172561061
      76    1       9.043475000000003       -9.293784116556687       50.361402589618102
      77    1       6.459625000000004       -4.646892058278350       48.684599262615592
      78    1       9.043475000000003       -6.099045826490329       49.858361481827259
      79    1       6.459625000000004       -1.452153768211984       48.181558387677342
      80    1       9.043475000000004       -2.904307536423970       49.355320487253593
      81    1       6.459625000000005       -3.775599797351158       54.218082428257581
      82    1       6.459625000000005       -0.580861507284796       53.715028063087061
      83    1       9.043475000000004       -2.033015275496783       54.888836254847980
      84    1       6.459625000000005        2.613876782781562       53.211979050733859
      85    1       9.043475000000004        1.161723014569577       54.385768955879719
      86    1       6.459625000000004      -12.198091652980652       52.708933275923862
      87    1       9.043475000000004      -13.650245421192638       53.882712119249213
      88    1       6.459625000000005       -9.003353362914291       52.205889459096326
      89    1       9.043475000000003      -10.455507131126275       53.379661611958262
      90    1       6.459625000000004       -5.808615072847935       51.702846826340163
      91    1       9.043475000000004       -7.260768841059914       52.876614933002763
      92    1       6.459625000000004       -2.613876782781571       51.199804909615885
      93    1       9.043475000000004       -4.066030550993555       52.373570569385052
      94    1       6.459625000000006       -4.937322811920745       57.236990909126682
      95    1       9.043475000000004       -6.389476580132717       58.412288631922827
      96    1       6.459625000000005       -1.742584521854386       56.733675009976366
      97    1       9.043475000000004       -3.194738290066366       57.908372832093740
      98    1       6.459625000000005        1.452153768211977       56.230467359735648
      99    1       9.043475000000004       -0.000000000000002       57.404797875320234
     100    1       6.459625000000004      -13.359814667550243       55.727325478083976
     101    1       9.043475000000003      -14.811968435762221       56.901432201568980
     102    1       6.459625000000004      -10.165076377483880       55.224223480446504
     103    1       9.043475000000004      -11.617230145695858       56.398194258156956
     104    1       6.459625000000004       -6.970338087417526       54.721145642205073
     105    1       9.043475000000004       -8.422491855629501       55.895033986822533
     106    1       9.043475000000004       -5.227753565563138       55.391920842820710
     107    1       6.459625000000006       -6.099045826490324       60.267627438012546
     108    1       9.043475000000004       -7.551199594702316       61.463726286695881
     109    1       6.459625000000005       -2.904307536423967       59.759695018242624
     110    1       9.043475000000004       -4.356461304635959       60.948887009799328
     111    1       6.459625000000005        0.290430753642394       59.253522970792275
     112    1       9.043475000000004       -1.161723014569600       60.437454573414406
     113    1       6.459625000000004      -14.521537682119829       58.748520731405605
     114    1       9.043475000000003      -15.973691450331810       59.928776105902976
     115    1       6.459625000000004      -11.326799392053468       58.244267892419479
     116    1       9.043475000000004      -12.778953160265447       59.422091474827219
     117    1       6.459625000000005       -8.132061101987107       57.740484424898128
     118    1       9.043475000000004       -9.584214870199087       58.916754056339734
     119    1       6.459625000000005       -0.871292260927201       62.329241838741936
     120    1       6.459625000000004      -15.683260696689405       61.808941220415441
     121    1       6.459625000000004      -12.488522406623051       61.291710610522017
     122    1       9.043475000000004      -13.940676174835035       62.503108260044975
     123    1       6.459625000000005       -9.293784116556690       60.778057134022504
     124    1       9.043475000000004      -10.745937884768672       61.982091066218615
     125    1       1.291925000000000        8.132061101987096        0.347820013512666
     126    1       3.875775000000000       13.069383913907838        0.173953592209616
     127    1       1.291925000000000       11.326799392053463        0.868120631839165
     128    1       3.875775000000000       16.264122203974196        0.694970786035979
     129    1       1.291925000000000       14.521537682119819        1.385351241732581
     130    1       3.875775000000000        1.452153768211978        1.213335565558728
     131    1       1.291925000000000       -0.290430753642395        1.899004718232105
     132    1       3.875775000000000        4.646892058278335        1.728174842455279
     133    1       1.291925000000000        2.904307536423960        2.409434414242060
     134    1       3.875775000000000        7.841630348344695        2.239607278840198
     135    1       1.291925000000000        6.099045826490327        2.917366834011984
     136    1       3.875775000000000       11.036368638411059        2.748285746351629
     137    1       1.291925000000000        9.293784116556681        3.423538881462321
     138    1       3.875775000000000       14.231106928477420        3.254970377427389
     139    1       1.291925000000000       12.488522406623048        3.928541120849001
     140    1       3.875775000000000       -0.580861507284796        3.760307795914873
     141    1       1.291925000000001       15.683260696689405        4.432793959835125
     142    1       3.875775000000000        2.613876782781566        4.264773220331781
     143    1       1.291925000000000        0.871292260927189        4.936577427356474
     144    1       3.875775000000001        5.808615072847925        4.768689020160870
     145    1       1.291925000000001        4.066030550993548        5.440070943127927
     146    1       3.875775000000001        9.003353362914282        5.272263976934366
     147    1       1.291925000000001        7.260768841059910        5.943386842278232
     148    1       3.875775000000000       12.198091652980651        5.775629650685620
     149    1       1.291925000000001       10.455507131126272        6.446594492518949
     150    1       1.291925000000001       13.650245421192624        6.949736374170635
     151    1       3.875775000000002       15.392829943047005        6.278867594097650
     152    1       3.875775000000000        0.580861507284789        6.782027865432082
     153    1       1.291925000000000       -1.161723014569587        7.452838371808109
     154    1       3.875775000000000        3.775599797351147        7.285141009433900
     155    1       1.291925000000000        2.033015275496772        7.955916210049542
     156    1       3.875775000000001        6.970338087417509        7.788225597406631
     157    1       1.291925000000001        5.227753565563138        8.458979423997025
     158    1       3.875775000000001       10.165076377483873        8.291292896374891
     159    1       1.291925000000001        8.422491855629495        8.962033789167544
     160    1       1.291925000000001       11.617230145695853        9.465082801520742
     161    1       3.875775000000002       13.359814667550230        8.794349733005408
     162    1       3.875775000000000       -1.452153768211985        9.297400240296355
     163    1       1.291925000000002       14.811968435762216        9.968128576330743
     164    1       3.875775000000000        1.742584521854374        9.800446919251854
     165    1       1.291925000000001       -0.000000000000003       10.471172393158273
     166    1       3.875775000000000        4.937322811920737       10.303491282869567
     167    1       1.291925000000001        3.194738290066359       10.974215025914434
     168    1       3.875775000000001        8.132061101987098       10.806534246286924
     169    1       1.291925000000001        6.389476580132722       11.477256942638718
     170    1       3.875775000000001       11.326799392053452       11.309576362966888
     171    1       1.291925000000001        9.584214870199080       11.980298426372858
     172    1       3.875775000000002       14.521537682119817       11.812617967615141
     173    1       1.291925000000002       12.778953160265436       12.483339648277656
     174    1       3.875775000000001       -0.290430753642400       12.315659262636512
     175    1       1.291925000000001       -2.033015275496776       12.986380711855285
     176    1       3.875775000000001        2.904307536423958       12.818700370427356
     177    1       1.291925000000002        1.161723014569583       13.489421679693553
     178    1       3.875775000000001        6.099045826490324       13.321741365001021
     179    1       1.291925000000002        4.356461304635945       13.992462589639029
     180    1       3.875775000000002        9.293784116556681       13.824782291113154
     181    1       1.291925000000002        7.551199594702303       14.495503464577272
     182    1       3.875775000000002       12.488522406623042       14.327823175827227
     183    1       1.291925000000002       10.745937884768663       14.998544318346998
     184    1       3.875775000000001       -2.323446029139174       14.830864035508295
     185    1       1.291925000000001       -4.066030550993554       15.501585159316333
     186    1       3.875775000000001        0.871292260927185       15.333904880052158
     187    1       6.459625000000000       -0.871292260927191       16.004626046075145
     188    1       3.875775000000001        4.066030550993544       15.836945766810969
     189    1       6.459625000000001        2.323446029139166       16.507666890619006
     190    1       3.875775000000001        7.260768841059906       16.339986607780308
     191    1       6.459625000000001        5.518184319205529       17.010707750300075
     192    1       3.875775000000003       10.455507131126268       16.843027461550026
     193    1       6.459625000000003        8.712922609271891       17.513748635014146
     194    1       3.875775000000001       -4.356461304635948       17.346068336488273
     195    1       6.459625000000003       11.907660899338250       18.016789561126277
     196    1       3.875775000000001       -1.161723014569589       17.849109246433748
     197    1       6.459625000000000       -2.904307536423965       18.519830555699947
     198    1       3.875775000000002        2.033015275496771       18.352150214272015
     199    1       6.459625000000000        0.290430753642394       19.022871663490793
     200    1       3.875775000000002        5.227753565563130       18.855191277849649
     201    1       6.459625000000002        3.485169043708757       19.525912958512158
     202    1       3.875775000000002        8.422491855629490       19.358232499754443
     203    1       6.459625000000002        6.679907333775110       20.028954563160415
     204    1       3.875775000000003       11.617230145695853       19.861273983488577
     205    1       6.459625000000002        9.874645623841472       20.531996679840379
     206    1       3.875775000000001       -3.194738290066362       20.364315900212862
     207    1       6.459625000000000       -4.937322811920740       21.035039643257740
     208    1       3.875775000000002       -0.000000000000006       20.867358532969025
     209    1       6.459625000000000       -1.742584521854383       21.538084006875458
     210    1       3.875775000000003        3.194738290066353       21.370402349796557
     211    1       6.459625000000001        1.452153768211979       22.041130685830950
     212    1       6.459625000000002        4.646892058278335       22.544181193121897
     213    1       3.875775000000003        6.389476580132715       21.873448124606554
     214    1       3.875775000000003        9.584214870199078       22.376497136959760
     215    1       6.459625000000002        7.841630348344700       23.047238029752414
     216    1       3.875775000000002       -5.227753565563139       22.879551502130276
     217    1       6.459625000000003       11.036368638411059       23.550305328720668
     218    1       3.875775000000002       -2.033015275496781       23.382614716077764
     219    1       6.459625000000001       -3.775599797351155       24.053389916693401
     220    1       3.875775000000002        1.161723014569578       23.885692554319199
     221    1       6.459625000000002       -0.580861507284799       24.556503060695221
     222    1       6.459625000000002        2.613876782781559       25.059663332029647
     223    1       3.875775000000003        4.356461304635941       24.388794551956668
     224    1       3.875775000000003        7.551199594702304       24.891936433608350
     225    1       6.459625000000003        5.808615072847925       25.562901275441682
     226    1       3.875775000000002       -7.260768841059914       25.395144083849072
     227    1       6.459625000000003        9.003353362914284       26.066266949192933
     228    1       3.875775000000002       -4.066030550993552       25.898459982999373
     229    1       6.459625000000002       -5.808615072847929       26.569841905966435
     230    1       3.875775000000003       -0.871292260927197       26.401953498770823
     231    1       6.459625000000002       -2.613876782781572       27.073757705795519
     232    1       3.875775000000002        2.323446029139166       26.905736966292174
     233    1       6.459625000000002        0.580861507284785       27.578223130212429
     234    1       3.875775000000004        5.518184319205532       27.409989805278297
     235    1       6.459625000000002        3.775599797351152       28.083560548699911
     236    1       3.875775000000004        8.712922609271883       27.914992044664981
     237    1       6.459625000000004        6.970338087417510       28.590245179775671
     238    1       3.875775000000002       -6.099045826490328       28.421164092115315
     239    1       6.459625000000002       -7.841630348344707       29.098923647287108
     240    1       3.875775000000003       -2.904307536423972       28.929096511885245
     241    1       6.459625000000002       -4.646892058278346       29.610356083672020
     242    1       3.875775000000003        0.290430753642390       29.439526207895195
     243    1       6.459625000000001       -1.452153768211989       30.125195360568569
     244    1       3.875775000000003        3.485169043708753       29.953179684394712
     245    1       6.459625000000003        1.742584521854377       30.643560140091314
     246    1       3.875775000000004        6.679907333775109       30.470410294288136
     247    1       6.459625000000003        4.937322811920734       31.164577333917681
     248    1       3.875775000000002       -8.132061101987103       30.990710912614635
