ITEM: TIMESTEP
69
ITEM: NUMBER OF ATOMS
248
ITEM: BOX BOUNDS xy xz yz pp pp pp
0.0000000000000000e+000 1.0335400000000007e+001 1.0000000000000001e-015
-1.8006706725828582e+001 1.8006706726000001e+001 5.1677000000000053e+000
0.0000000000000000e+000 6.2677061852000001e+001 -1.8006706725828582e+001
ITEM: ATOMS id type x y z c_peatom c_datom[1] c_datom[2] c_datom[3] c_datom[4] c_voratom[1] c_voratom[2] 
    1     1         6.4596250000        -7.2134728153        32.1057373491        -6.5303764074        -0.0000000000         0.0472960258         0.0722356369         0.0863417703        14.7810623524    10 
    2     1         3.8757750000        -8.7204930737        33.4628413219        -6.4566104285        -0.0000000000        -0.0075704645         0.2253056776         0.2254328288         0.0000000000     0 
    3     1         6.4596250000        -3.9811794632        31.9836406580        -6.2283535424         0.0000000000         0.0848510878         0.4711561397         0.4787356421        22.4939204001    13 
    4     1         3.8757750000        -5.5064776718        32.6078020457        -6.6105061395        -0.0000000000         0.0117066474        -0.1160801222         0.1166689348        27.5351818836    14 
    5     1         3.8757750000        -2.2251880103        32.1714102931        -6.6024902675        -0.0000000000         0.0982580188        -0.0352412649         0.1043867090        25.0066827202    14 
    6     1         3.8757750000         0.8742685572        32.0377246616        -6.3462293598        -0.0000000000         0.0029762963         0.3513737220         0.3513863270        23.5407036128    15 
    7     1         6.4596250000        -8.4267730785        35.0852204132        -6.5905471936        -0.0000000000        -0.0042812228        -0.0136183088         0.0142754055         0.0000000000     0 
    8     1         3.8757750000        -9.8987221526        36.2937148387        -6.6052535306        -0.0000000000        -0.0240765288         0.0186064852         0.0304282850         0.0000000000     0 
    9     1         6.4596250000        -5.2378543286        34.6518423802        -6.5606871731        -0.0000000000        -0.0101007631         0.0583410767         0.0592090081        24.0637957793    14 
   10     1         3.8757750000        -6.6437404451        35.7718074636        -6.6011693427        -0.0000000000         0.0361668887         0.0004825777         0.0361701081        18.3980473788    10 
   11     1         6.4596250000        -1.9461472899        34.1512382715        -6.5562776319        -0.0000000000         0.0868679856         0.0644215990         0.1081489220        23.8715425095    14 
   12     1         3.8757750000        -3.4712238409        35.2141045747        -6.6465626716         0.0000000000         0.0139452028        -0.0529674723         0.0547724548        23.7288669868    14 
   13     1         6.4596250000         1.1407774379        33.6281995905        -6.5012257572        -0.0000000000        -0.0209455767         0.0500613855         0.0542665597        23.6692839269    14 
   14     1         3.8757750000        -0.2815784724        34.8854997059        -6.5319474359        -0.0000000000         0.0088522813         0.1234298983         0.1237469300        22.8999164338    16 
   15     1         6.4596250000         4.2623967129        33.3438874816        -6.3727193239        -0.0000000000        -0.0940645917         0.2771817131         0.2927077885        24.8235046001    15 
   16     1         3.8757750000         2.9412257679        34.2506324785        -6.5417290889        -0.0000000000         0.0369182315        -0.0052652817         0.0372918089        24.1093828061    12 
   17     1         6.4596250000         7.6063864446        32.4460937009        -6.6221011213        -0.0000000000         0.0551868499        -0.1057727908         0.1193041142         0.0000000000     0 
   18     1         3.8757750000         6.1252866386        33.6258520445        -6.6428525173         0.0000000000         0.0262408121        -0.1221132959         0.1249009097        25.6465496123    11 
   19     1         6.4596250000         5.2433298862        38.5923942799        -6.6402601375        -0.0000000000         0.0155763206        -0.0312776557         0.0349415728        26.6868536770    11 
   20     1         6.4596250000        -9.5893421119        38.1011441564        -6.6341002731        -0.0000000000        -0.0051272417        -0.0194146352         0.0200802557         0.0000000000     0 
   21     1         3.8757750000       -11.0388613206        39.2869652032        -6.6323226664        -0.0000000000        -0.0024926822        -0.0074819330         0.0078862403         0.0000000000     0 
   22     1         6.4596250000        -6.3991320333        37.6270984032        -6.6306579104         0.0000000000        -0.0096554532         0.0096998830         0.0136863255        22.8745668235    10 
   23     1         3.8757750000        -7.8427793297        38.7834240769        -6.6291830059        -0.0000000000        -0.0011489814        -0.0079452210         0.0080278699         0.0000000000     0 
   24     1         6.4596250000        -3.1949057129        37.1110888186        -6.6383400177        -0.0000000000        -0.0001674229        -0.0030717582         0.0030763174        23.4131342199    14 
   25     1         3.8757750000        -4.6415920353        38.2706833799        -6.6462605876        -0.0000000000         0.0053000230        -0.0175839204         0.0183653070        25.1613123448    14 
   26     1         6.4596250000         0.0133168587        36.6633924015        -6.6108944832        -0.0000000000         0.0133168587         0.0525974985         0.0542571246        23.1045392948    14 
   27     1         3.8757750000        -1.4686580394        37.8100549853        -6.6402232957        -0.0000000000        -0.0165042712         0.0249295667         0.0298977300        23.3134679766    14 
   28     1         6.4596250000         3.1834786546        36.1705979438        -6.5712572777        -0.0000000000        -0.0112596355         0.0633779975         0.0643704121        22.9882811910    16 
   29     1         3.8757750000         1.7640716113        37.3114624986        -6.6148617730        -0.0000000000         0.0214870895         0.0295447302         0.0365319873        23.3086102668    12 
   30     1         6.4596250000         6.4062142406        35.5163964563        -6.6174100007        -0.0000000000         0.0167376605        -0.0869076902         0.0885047789        21.6065424432    11 
   31     1         3.8757750000         4.9637188261        36.7283566997        -6.6503573768        -0.0000000000         0.0263960142        -0.0502451696         0.0567567320        25.2777952895    14 
   32     1         6.4596250000         4.0766737367        41.6366303836        -6.6342022724        -0.0000000000         0.0106431857        -0.0053918254         0.0119310177        25.3361064433    13 
   33     1         3.8757750000         2.6207969780        42.8103701216        -6.6380143759        -0.0000000000         0.0069201953        -0.0054177471         0.0087886908        23.4408380136    16 
   34     1         6.4596250000       -10.7451497172        41.1281508716        -6.6365692749        -0.0000000000         0.0007881676        -0.0108269738         0.0108556238         0.0000000000     0 
   35     1         3.8757750000         5.8132560880        42.3091590667        -6.6336922920        -0.0000000000         0.0046410152        -0.0035868853         0.0058655578        27.1274839328    11 
   36     1         6.4596250000        -7.5562976420        40.6320504878        -6.6331465538        -0.0000000000        -0.0050980473        -0.0038806786         0.0064070081         0.0000000000     0 
   37     1         3.8757750000        -9.0035038181        41.8054631884        -6.6327080864        -0.0000000000        -0.0001504552        -0.0042401309         0.0042427994         0.0000000000     0 
   38     1         6.4596250000        -4.3592193830        40.1297952859        -6.6381422689         0.0000000000        -0.0027580784        -0.0030853732         0.0041384205        25.2526392370    14 
   39     1         3.8757750000        -5.8110719129        41.2995171731        -6.6354620655        -0.0000000000        -0.0024568400        -0.0071423293         0.0075530743        27.9464056341    11 
   40     1         6.4596250000        -1.1667266153        39.6493021848        -6.6327311755        -0.0000000000        -0.0050036008         0.0194783623         0.0201107588        23.3607073566    14 
   41     1         3.8757750000        -2.6215916788        40.8113723486        -6.6354577446        -0.0000000000        -0.0077148960         0.0077586209         0.0109414725        23.3705121373    14 
   42     1         6.4596250000         2.0401876472        39.1637124952        -6.6309301011        -0.0000000000         0.0071723717         0.0369559717         0.0376455410        23.2550708430    14 
   43     1         3.8757750000         0.5818925761        40.3112466883        -6.6360105863        -0.0000000000         0.0010310688         0.0106819730         0.0107316192        23.4100936745    14 
   44     1         3.8757750000         3.7950199101        39.7839487808        -6.6420493764        -0.0000000000         0.0194201127        -0.0135615693         0.0236866405        23.4437338046    14 
   45     1         6.4596250000         2.9085494481        44.6588660103        -6.6340644157        -0.0000000000         0.0042419116        -0.0014062808         0.0044689417        23.4087706239    14 
   46     1         3.8757750000         1.4548440620        45.8301890624        -6.6356711671        -0.0000000000         0.0026902938        -0.0038453283         0.0046929980        23.4162399603    14 
   47     1         6.4596250000       -11.9045177808        44.1536006685        -6.6351511629        -0.0000000000         0.0031431185        -0.0036306281         0.0048021510         0.0000000000     0 
   48     1         3.8757750000         4.6501089327        45.3283271309        -6.6349531467        -0.0000000000         0.0032168744        -0.0026663848         0.0041782639        25.1846119713    12 
   49     1         6.4596250000        -8.7141803015        43.6504962022        -6.6349514856         0.0000000000        -0.0012576922        -0.0036939866         0.0039022207         0.0000000000     0 
   50     1         3.8757750000       -10.1635459743        44.8272683331        -6.6340067287        -0.0000000000         0.0015304032        -0.0006842727         0.0016764137         0.0000000000     0 
   51     1         6.4596250000        -5.5210274149        43.1480534564        -6.6357283360        -0.0000000000        -0.0028430957        -0.0030954373         0.0042029662        25.2900997264    13 
   52     1         3.8757750000        -6.9717370145        44.3226516055        -6.6342266319        -0.0000000000        -0.0013989270        -0.0022600325         0.0026579586        14.4412056668     8 
   53     1         6.4596250000        -2.3274128252        42.6560067214        -6.6347261877        -0.0000000000        -0.0039667961         0.0078994323         0.0088394854        23.3926784568    14 
   54     1         3.8757750000        -3.7803844273        43.8244792324        -6.6343462392        -0.0000000000        -0.0047846299         0.0026086579         0.0054495669        23.3987549507    14 
   55     1         6.4596250000         0.8722013138        42.1593419918        -6.6317742388        -0.0000000000         0.0009090529         0.0142768194         0.0143057313        23.3604936143    14 
   56     1         3.8757750000        -0.5820169253        43.3231053568        -6.6357440468         0.0000000000        -0.0011554181         0.0042760043         0.0044293570        23.4085028659    14 
   57     1         6.4596250000         1.7448131074        47.6769743405        -6.6348296198         0.0000000000         0.0022285856        -0.0015431934         0.0027107267        23.4088397079    14 
   58     1         9.0434750000         0.2913279645        48.8460090466        -6.6341565666         0.0000000000         0.0008972109        -0.0062705146         0.0063343777        23.3965020866    14 
   59     1         6.4596250000       -13.0663002771        47.1735231531        -6.6344074566         0.0000000000         0.0030836368        -0.0019535398         0.0036503608         0.0000000000     0 
   60     1         9.0434750000         3.4883379253        48.3459503468        -6.6350209981         0.0000000000         0.0031688816        -0.0032883296         0.0045667189        23.4056955829    14 
   61     1         6.4596250000        -9.8742370650        46.6716086563        -6.6345089880         0.0000000000         0.0004085588        -0.0008271499         0.0009225493         0.0000000000     0 
   62     1         9.0434750000       -11.3250145754        47.8475450782        -6.6351216122        -0.0000000000         0.0017848166         0.0013472614         0.0022362209         0.0000000000     0 
   63     1         6.4596250000        -6.6816921505        46.1680477001        -6.6351216122         0.0000000000        -0.0017848167        -0.0013472615         0.0022362210        18.9991903044    12 
   64     1         9.0434750000        -8.1324696609        47.3439841219        -6.6345089880         0.0000000000        -0.0004085589         0.0008271497         0.0009225492         0.0000000000     0 
   65     1         6.4596250000        -3.4883379252        45.6696424314        -6.6350209981        -0.0000000000        -0.0031688815         0.0032883295         0.0045667188        23.4056955829    14 
   66     1         3.8757750000        -4.9404064488        46.8420696252        -6.6344074566        -0.0000000000        -0.0030836369         0.0019535397         0.0036503608        24.9690723587    12 
   67     1         6.4596250000        -0.2913279645        45.1695837317        -6.6341565666        -0.0000000000        -0.0008972108         0.0062705144         0.0063343775        23.3965020866    14 
   68     1         3.8757750000        -1.7448131074        46.3386184377        -6.6348296198         0.0000000000        -0.0022285855         0.0015431932         0.0027107266        23.4088397079    14 
   69     1         6.4596250000         0.5820169254        50.6924874215        -6.6357440468        -0.0000000000         0.0011554181        -0.0042760044         0.0044293572        23.4085028659    14 
   70     1         9.0434750000        -0.8722013137        51.8562507864        -6.6317742388         0.0000000000        -0.0009090528        -0.0142768195         0.0143057315        23.3604936143    14 
   71     1         6.4596250000       -14.2263222987        50.1911135459        -6.6343462392        -0.0000000000         0.0047846298        -0.0026086581         0.0054495669         0.0000000000     0 
   72     1         9.0434750000         2.3274128253        51.3595860568        -6.6347261877         0.0000000000         0.0039667962        -0.0078994324         0.0088394855        23.3926784568    14 
   73     1         6.4596250000       -11.0349697115        49.6929411728        -6.6342266319        -0.0000000000         0.0013989269         0.0022600324         0.0026579584         0.0000000000     0 
   74     1         9.0434750000       -12.4856793111        50.8675393218        -6.6357283360         0.0000000000         0.0028430956         0.0030954372         0.0042029661         0.0000000000     0 
   75     1         6.4596250000        -7.8431607516        49.1883244451        -6.6340067287         0.0000000000        -0.0015304033         0.0006842726         0.0016764138         0.0000000000     0 
   76     1         9.0434750000        -9.2925264244        50.3650965761        -6.6349514856         0.0000000000         0.0012576921         0.0036939864         0.0039022206         0.0000000000     0 
   77     1         6.4596250000        -4.6501089326        48.6872656473        -6.6349531467         0.0000000000        -0.0032168743         0.0026663847         0.0041782637        25.1846119712    12 
   78     1         9.0434750000        -6.1021889451        49.8619921098        -6.6351511629         0.0000000000        -0.0031431186         0.0036306280         0.0048021510        25.7582844677    12 
   79     1         6.4596250000        -1.4548440619        48.1854037158        -6.6356711671         0.0000000000        -0.0026902937         0.0038453282         0.0046929979        23.4162399603    14 
   80     1         9.0434750000        -2.9085494480        49.3567267679        -6.6340644157         0.0000000000        -0.0042419116         0.0014062807         0.0044689416        23.4087706239    14 
   81     1         6.4596250000        -3.7950199100        54.2316439974        -6.6420493764        -0.0000000000        -0.0194201127         0.0135615692         0.0236866404        23.4437338046    14 
   82     1         6.4596250000        -0.5818925760        53.7043460899        -6.6360105863        -0.0000000000        -0.0010310687        -0.0106819732         0.0107316193        23.4100936745    14 
   83     1         9.0434750000        -2.0401876471        54.8518802830        -6.6309301011         0.0000000000        -0.0071723716        -0.0369559718         0.0376455412        23.2550708430    14 
   84     1         6.4596250000         2.6215916789        53.2042204297        -6.6354577446         0.0000000000         0.0077148961        -0.0077586211         0.0109414726        23.3705121373    14 
   85     1         9.0434750000         1.1667266154        54.3662905935        -6.6327311755         0.0000000000         0.0050036008        -0.0194783624         0.0201107589        23.3607073566    14 
   86     1         6.4596250000       -12.1956348131        52.7160756051        -6.6354620655        -0.0000000000         0.0024568399         0.0071423292         0.0075530741         0.0000000000     0 
   87     1         9.0434750000       -13.6474873429        53.8857974924        -6.6381422689         0.0000000000         0.0027580783         0.0030853731         0.0041384204         0.0000000000     0 
   88     1         6.4596250000        -9.0032029079        52.2101295899        -6.6327080864        -0.0000000000         0.0001504550         0.0042401308         0.0042427993         0.0000000000     0 
   89     1         9.0434750000       -10.4504090839        53.3835422904        -6.6331465538         0.0000000000         0.0050980472         0.0038806785         0.0064070080         0.0000000000     0 
   90     1         6.4596250000        -5.8132560879        51.7064337115        -6.6336922920         0.0000000000        -0.0046410151         0.0035868852         0.0058655576        27.1274839317    11 
   91     1         9.0434750000        -7.2615570087        52.8874419066        -6.6365692749         0.0000000000        -0.0007881677         0.0108269736         0.0108556237         0.0000000000     0 
   92     1         6.4596250000        -2.6207969780        51.2052226566        -6.6380143759        -0.0000000000        -0.0069201952         0.0054177470         0.0087886907        23.4408380136    16 
   93     1         9.0434750000        -4.0766737366        52.3789623947        -6.6342022724         0.0000000000        -0.0106431856         0.0053918253         0.0119310176        25.3361064433    13 
   94     1         6.4596250000        -4.9637188260        57.2872360786        -6.6503573768        -0.0000000000        -0.0263960141         0.0502451694         0.0567567319        25.2777952893    14 
   95     1         9.0434750000        -6.4062142405        58.4991963220        -6.6174100007         0.0000000000        -0.0167376604         0.0869076900         0.0885047788        21.6065424415    11 
   96     1         6.4596250000        -1.7640716113        56.7041302796        -6.6148617730        -0.0000000000        -0.0214870894        -0.0295447304         0.0365319874        23.3086102668    12 
   97     1         9.0434750000        -3.1834786545        57.8449948345        -6.5712572777         0.0000000000         0.0112596356        -0.0633779976         0.0643704123        22.9882811910    16 
   98     1         6.4596250000         1.4686580395        56.2055377930        -6.6402232957         0.0000000000         0.0165042712        -0.0249295668         0.0298977302        23.3134679767    14 
   99     1         9.0434750000        -0.0133168587        57.3522003767        -6.6108944832         0.0000000000        -0.0133168587        -0.0525974986         0.0542571247        23.1045392948    14 
  100     1         6.4596250000       -13.3651146906        55.7449093984        -6.6462605876        -0.0000000000        -0.0053000231         0.0175839203         0.0183653069         0.0000000000     0 
  101     1         9.0434750000       -14.8118010130        56.9045039596        -6.6383400177         0.0000000000         0.0001674228         0.0030717581         0.0030763173         0.0000000000     0 
  102     1         6.4596250000       -10.1639273962        55.2321687014        -6.6291830059         0.0000000000         0.0011489813         0.0079452209         0.0080278698         0.0000000000     0 
  103     1         9.0434750000       -11.6075746927        56.3884943750        -6.6306579104         0.0000000000         0.0096554530        -0.0096998831         0.0136863255         0.0000000000     0 
  104     1         6.4596250000        -6.9678454053        54.7286275750        -6.6323226664         0.0000000000         0.0024926821         0.0074819328         0.0078862401        17.5474443972    12 
  105     1         9.0434750000        -8.4173646140        55.9144486219        -6.6341002731         0.0000000000         0.0051272416         0.0194146351         0.0200802555         0.0000000000     0 
  106     1         9.0434750000        -5.2433298861        55.4231984984        -6.6402601375         0.0000000000        -0.0155763206         0.0312776555         0.0349415726        26.6868536766    11 
  107     1         6.4596250000        -6.1252866385        60.3897407337        -6.6428525173        -0.0000000000        -0.0262408121         0.1221132957         0.1249009096        25.6465496110    11 
  108     1         9.0434750000        -7.6063864445        61.5694990774        -6.6221011213         0.0000000000        -0.0551868498         0.1057727907         0.1193041141         0.0000000000     0 
  109     1         6.4596250000        -2.9412257679        59.7649602998        -6.5417290889        -0.0000000000        -0.0369182315         0.0052652816         0.0372918088        24.1093828061    12 
  110     1         9.0434750000        -4.2623967129        60.6717052966        -6.3727193239         0.0000000000         0.0940645917        -0.2771817132         0.2927077887        24.8235046001    15 
  111     1         6.4596250000         0.2815784724        59.1300930724        -6.5319474359        -0.0000000000        -0.0088522812        -0.1234298984         0.1237469301        22.8999164338    16 
  112     1         9.0434750000        -1.1407774378        60.3873931878        -6.5012257572         0.0000000000         0.0209455767        -0.0500613856         0.0542665598        23.6692839269    14 
  113     1         6.4596250000       -14.5354828850        58.8014882036        -6.6465626716        -0.0000000000        -0.0139452029         0.0529674721         0.0547724547         0.0000000000     0 
  114     1         9.0434750000       -16.0605594360        59.8643545068        -6.5562776319         0.0000000000        -0.0868679857        -0.0644215992         0.1081489222         0.0000000000     0 
  115     1         6.4596250000       -11.3629662809        58.2437853146        -6.6011693427        -0.0000000000        -0.0361668888        -0.0004825778         0.0361701082         0.0000000000     0 
  116     1         9.0434750000       -12.7688523973        59.3637503980        -6.5606871731         0.0000000000         0.0101007630        -0.0583410768         0.0592090082         0.0000000000     0 
  117     1         6.4596250000        -8.1079845733        57.7218779396        -6.6052535306         0.0000000000         0.0240765287        -0.0186064853         0.0304282850         0.0000000000     0 
  118     1         9.0434750000        -9.5799336475        58.9303723650        -6.5905471936         0.0000000000         0.0042812227         0.0136183087         0.0142754054         0.0000000000     0 
  119     1         6.4596250000        -0.8742685571        61.9778681166        -6.3462293598         0.0000000000        -0.0029762962        -0.3513737221         0.3513863272        23.5407036128    15 
  120     1         6.4596250000       -15.7815187157        61.8441824852        -6.6024902675        -0.0000000000        -0.0982580190         0.0352412648         0.1043867091         0.0000000000     0 
  121     1         6.4596250000       -12.5002290541        61.4077907326        -6.6105061395        -0.0000000000        -0.0117066475         0.1160801221         0.1166689347         0.0000000000     0 
  122     1         9.0434750000       -14.0255272628        62.0319521202        -6.2283535424         0.0000000000        -0.0848510880        -0.4711561398         0.4787356423         0.0000000000     0 
  123     1         6.4596250000        -9.2862136522        60.5527514563        -6.4566104285        -0.0000000000         0.0075704644        -0.2253056777         0.2254328289         0.0000000000     0 
  124     1         9.0434750000       -10.7932339107        61.9098554292        -6.5303764074         0.0000000000        -0.0472960259        -0.0722356370         0.0863417704         0.0000000000     0 
  125     1         1.2919250000         8.1290848065         0.6991937355        -6.3462293599         0.0000000000        -0.0029762955         0.3513737220         0.3513863271         0.0000000000     0 
  126     1         3.8757750000        12.9845328269         0.6451097318        -6.2283535426         0.0000000000        -0.0848510870         0.4711561396         0.4787356419         0.0000000000     0 
  127     1         1.2919250000        11.2285413739         0.8328793671        -6.6024902675         0.0000000000        -0.0982580181        -0.0352412647         0.1043867083         0.0000000000     0 
  128     1         3.8757750000        16.2168261788         0.7672064234        -6.5303764072        -0.0000000000        -0.0472960251         0.0722356374         0.0863417703         0.0000000000     0 
  129     1         1.2919250000        14.5098310351         1.2692711198        -6.6105061394         0.0000000000        -0.0117066471        -0.1160801219         0.1166689345         0.0000000000     0 
  130     1         3.8757750000         1.3969669186         1.1075627751        -6.6221011212        -0.0000000000        -0.0551868496        -0.1057727904         0.1193041138        25.7391215742    15 
  131     1         1.2919250000        -0.2828602888         2.1243103958        -6.4566104286         0.0000000000         0.0075704649         0.2253056776         0.2254328287        22.7789406130    16 
  132     1         3.8757750000         4.7409566510         2.0053565551        -6.3727193242        -0.0000000000         0.0940645928         0.2771817126         0.2927077884        26.0673637603    14 
  133     1         1.2919250000         2.8780667250         2.2873211184        -6.6428525173         0.0000000000        -0.0262408114        -0.1221132958         0.1249009095        24.9244562515    14 
  134     1         3.8757750000         7.8625759259         2.2896686646        -6.5012257571         0.0000000000         0.0209455776         0.0500613857         0.0542665603         0.0000000000     0 
  135     1         1.2919250000         6.0621275957         2.9121015525        -6.5417290890        -0.0000000000        -0.0369182308        -0.0052652816         0.0372918082        27.2711937532    10 
  136     1         3.8757750000        10.9495006536         2.8127073455        -6.5562776319         0.0000000000        -0.0868679848         0.0644215991         0.1081489215         0.0000000000     0 
  137     1         1.2919250000         9.2849318359         3.5469687799        -6.5319474359         0.0000000000        -0.0088522806         0.1234298985         0.1237469301         0.0000000000     0 
  138     1         3.8757750000        14.2412076920         3.3133114544        -6.5606871731         0.0000000000         0.0101007635         0.0583410769         0.0592090084         0.0000000000     0 
  139     1         1.2919250000        12.4745772043         3.8755736488        -6.6465626715         0.0000000000        -0.0139452023        -0.0529674720         0.0547724544         0.0000000000     0 
  140     1         3.8757750000        -0.5765802841         3.7466894874        -6.5905471936        -0.0000000000         0.0042812232        -0.0136183085         0.0142754054        23.1189169929    14 
  141     1         1.2919250000        15.6470938085         4.4332765377        -6.6011693427         0.0000000000        -0.0361668882         0.0004825779         0.0361701075         0.0000000000     0 
  142     1         3.8757750000         2.5971391230         4.1778655300        -6.6174100008        -0.0000000000        -0.0167376597        -0.0869076903         0.0885047789        23.4682059249    14 