ITEM: TIMESTEP
0
ITEM: NUMBER OF ATOMS
248
ITEM: BOX BOUNDS xy xz yz pp pp pp
0.0000000000000000e+000 1.0335400000000007e+001 1.0000000000000001e-015
-1.8006706725828582e+001 1.8006706726000001e+001 5.1677000000000053e+000
0.0000000000000000e+000 6.2677061852000001e+001 -1.8006706725828582e+001
ITEM: ATOMS id type x y z c_peatom c_datom[1] c_datom[2] c_datom[3] c_datom[4] c_voratom[1] c_voratom[2] 
    1     1         6.4596250000        -7.2607688411        32.0335017122        -6.4244829285         0.0000000000         0.0000000000         0.0000000000         0.0000000000         0.0000000000     0 
    2     1         3.8757750000        -8.7129226093        33.2375356444        -5.8341403795        -0.0000000000         0.0000000000         0.0000000000         0.0000000000         0.0000000000     0 
    3     1         6.4596250000        -4.0660305510        31.5124845183        -3.0760150588         0.0000000000         0.0000000000         0.0000000000         0.0000000000        23.5060003867    11 
    4     1         3.8757750000        -5.5181843192        32.7238821679        -6.6250554318         0.0000000000        -0.0000000000         0.0000000000         0.0000000000        33.8813992864    16 
    5     1         3.8757750000        -2.3234460291        32.2066515580        -6.6429392564         0.0000000000         0.0000000000         0.0000000000         0.0000000000        25.7143327088    14 
    6     1         3.8757750000         0.8712922609        31.6863509396        -5.7235690995         0.0000000000         0.0000000000         0.0000000000         0.0000000000        22.6974370930    13 
    7     1         6.4596250000        -8.4224918556        35.0988387220        -6.6635306868         0.0000000000        -0.0000000000         0.0000000000         0.0000000000         0.0000000000     0 
    8     1         3.8757750000        -9.8746456238        36.2751083535        -6.6489345213        -0.0000000000         0.0000000000         0.0000000000         0.0000000000         0.0000000000     0 
    9     1         6.4596250000        -5.2277535656        34.5935013036        -6.6257369562         0.0000000000         0.0000000000         0.0000000000         0.0000000000        26.9989524155    11 
   10     1         3.8757750000        -6.6799073338        35.7713248860        -6.6219332339         0.0000000000         0.0000000000         0.0000000000         0.0000000000        18.0617488246    10 
   11     1         6.4596250000        -2.0330152755        34.0868166725        -6.6015103898         0.0000000000        -0.0000000000         0.0000000000         0.0000000000        24.7855098104    14 
   12     1         3.8757750000        -3.4851690437        35.2670720470        -6.6454684167        -0.0000000000         0.0000000000         0.0000000000         0.0000000000        23.5361748299    14 
   13     1         6.4596250000         1.1617230146        33.5781382050        -6.5650953366         0.0000000000         0.0000000000         0.0000000000         0.0000000000        24.3540599940    14 
   14     1         3.8757750000        -0.2904307536        34.7620698076        -6.5734667752         0.0000000000         0.0000000000         0.0000000000         0.0000000000        23.5928170800    14 
   15     1         6.4596250000         4.3564613046        33.0667057686        -3.1675385944         0.0000000000         0.0000000000         0.0000000000         0.0000000000        23.2378351322    13 
   16     1         3.8757750000         2.9043075364        34.2558977601        -6.6362797410         0.0000000000        -0.0000000000         0.0000000000         0.0000000000        24.9508815733    14 
   17     1         6.4596250000         7.5511995947        32.5518664917        -6.5800483966         0.0000000000         0.0000000000         0.0000000000         0.0000000000         0.0000000000     0 
   18     1         3.8757750000         6.0990458265        33.7479653404        -6.6395702342        -0.0000000000         0.0000000000         0.0000000000         0.0000000000        25.4011242396    11 
   19     1         6.4596250000         5.2277535656        38.6236719356        -6.6338748826         0.0000000000         0.0000000000         0.0000000000         0.0000000000        26.5853579902    13 
   20     1         6.4596250000        -9.5842148702        38.1205587916        -6.6335137082         0.0000000000         0.0000000000         0.0000000000         0.0000000000         0.0000000000     0 
   21     1         3.8757750000       -11.0363686384        39.2944471362        -6.6337601185         0.0000000000         0.0000000000         0.0000000000         0.0000000000         0.0000000000     0 
   22     1         6.4596250000        -6.3894765801        37.6173985202        -6.6332982675         0.0000000000         0.0000000000         0.0000000000         0.0000000000        23.0495245264    10 
   23     1         3.8757750000        -7.8416303483        38.7913692979        -6.6332962904         0.0000000000        -0.0000000000         0.0000000000         0.0000000000         0.0000000000     0 
   24     1         6.4596250000        -3.1947382901        37.1141605768        -6.6226004983         0.0000000000        -0.0000000000         0.0000000000         0.0000000000        23.4360553611    14 
   25     1         3.8757750000        -4.6468920583        38.2882673003        -6.6326871574        -0.0000000000        -0.0000000000         0.0000000000         0.0000000000        25.1913564774    14 
   26     1         6.4596250000        -0.0000000000        36.6107949031        -6.6262035350        -0.0000000000        -0.0000000000         0.0000000000         0.0000000000        23.4548691328    14 
   27     1         3.8757750000        -1.4521537682        37.7851254186        -6.6316581416         0.0000000000         0.0000000000         0.0000000000         0.0000000000        23.4185888487    14 
   28     1         6.4596250000         3.1947382901        36.1072199463        -6.6074047292         0.0000000000         0.0000000000         0.0000000000         0.0000000000        23.4835580338    14 
   29     1         3.8757750000         1.7425845219        37.2819177684        -6.6215678883         0.0000000000        -0.0000000000         0.0000000000         0.0000000000        23.4272088839    14 
   30     1         6.4596250000         6.3894765801        35.6033041465        -6.6426302651         0.0000000000        -0.0000000000         0.0000000000         0.0000000000        21.8634202276    13 
   31     1         3.8757750000         4.9373228119        36.7786018693        -6.6469188759         0.0000000000         0.0000000000         0.0000000000         0.0000000000        24.9840295450    12 
   32     1         6.4596250000         4.0660305510        41.6420222090        -6.6346562743         0.0000000000         0.0000000000         0.0000000000         0.0000000000        25.2692547068    15 
   33     1         3.8757750000         2.6138767828        42.8157878688        -6.6346750396         0.0000000000        -0.0000000000         0.0000000000         0.0000000000        23.4048864415    14 
   34     1         6.4596250000       -10.7459378848        41.1389778454        -6.6346225118         0.0000000000        -0.0000000000         0.0000000000         0.0000000000         0.0000000000     0 
   35     1         3.8757750000         5.8086150728        42.3127459520        -6.6346529791         0.0000000000         0.0000000000         0.0000000000         0.0000000000        27.1988860494    11 
   36     1         6.4596250000        -7.5511995947        40.6359311664        -6.6345680591         0.0000000000        -0.0000000000         0.0000000000         0.0000000000         0.0000000000     0 
   37     1         3.8757750000        -9.0033533629        41.8097033193        -6.6346169315         0.0000000000         0.0000000000         0.0000000000         0.0000000000         0.0000000000     0 
   38     1         6.4596250000        -4.3564613046        40.1328806591        -6.6344816133         0.0000000000        -0.0000000000         0.0000000000         0.0000000000        25.2603360700    12 
   39     1         3.8757750000        -5.8086150728        41.3066595025        -6.6345584704         0.0000000000         0.0000000000         0.0000000000         0.0000000000        27.9494225190    13 
   40     1         6.4596250000        -1.1617230146        39.6298238225        -6.6343478103         0.0000000000         0.0000000000         0.0000000000         0.0000000000        23.4074431676    14 
   41     1         3.8757750000        -2.6138767828        40.8036137276        -6.6344647910         0.0000000000        -0.0000000000         0.0000000000         0.0000000000        23.4054861683    14 
   42     1         6.4596250000         2.0330152755        39.1267565235        -6.6341487732         0.0000000000         0.0000000000         0.0000000000         0.0000000000        23.4091629960    14 
   43     1         3.8757750000         0.5808615073        40.3005647153        -6.6343174294         0.0000000000         0.0000000000         0.0000000000         0.0000000000        23.4059377972    14 
   44     1         3.8757750000         3.7755997974        39.7975103501        -6.6340919417         0.0000000000        -0.0000000000         0.0000000000         0.0000000000        23.4066828955    12 
   45     1         6.4596250000         2.9043075364        44.6602722911        -6.6347065131         0.0000000000         0.0000000000         0.0000000000         0.0000000000        23.4048113158    14 
   46     1         3.8757750000         1.4521537682        45.8340343907        -6.6347074288         0.0000000000         0.0000000000         0.0000000000         0.0000000000        23.4047988541    14 
   47     1         6.4596250000       -11.9076608993        44.1572312966        -6.6347048188         0.0000000000         0.0000000000         0.0000000000         0.0000000000         0.0000000000     0 
   48     1         3.8757750000         4.6468920583        45.3309935158        -6.6347063636         0.0000000000         0.0000000000         0.0000000000         0.0000000000        25.1745260362    12 
   49     1         6.4596250000        -8.7129226093        43.6541901888        -6.6347019997         0.0000000000        -0.0000000000         0.0000000000         0.0000000000         0.0000000000     0 
   50     1         3.8757750000       -10.1650763775        44.8279526058        -6.6347045628         0.0000000000        -0.0000000000         0.0000000000         0.0000000000         0.0000000000     0 
   51     1         6.4596250000        -5.5181843192        43.1511488937        -6.6346973421         0.0000000000         0.0000000000         0.0000000000         0.0000000000        25.2900527684    11 
   52     1         3.8757750000        -6.9703380874        44.3249116380        -6.6347015775         0.0000000000        -0.0000000000         0.0000000000         0.0000000000        14.4541549055    10 
   53     1         6.4596250000        -2.3234460291        42.6481072891        -6.6346896522         0.0000000000        -0.0000000000         0.0000000000         0.0000000000        23.4049238066    14 
   54     1         3.8757750000        -3.7755997974        43.8218705744        -6.6346966334         0.0000000000         0.0000000000         0.0000000000         0.0000000000        23.4048276503    14 
   55     1         6.4596250000         0.8712922609        42.1450651724        -6.6346770023         0.0000000000         0.0000000000         0.0000000000         0.0000000000        23.4050087966    14 
   56     1         3.8757750000        -0.5808615073        43.3188293525        -6.6346884754         0.0000000000         0.0000000000         0.0000000000         0.0000000000        23.4048498060    14 
   57     1         6.4596250000         1.7425845219        47.6785175339        -6.6347080418         0.0000000000         0.0000000000         0.0000000000         0.0000000000        23.4047973867    14 
   58     1         9.0434750000         0.2904307536        48.8522795611        -6.6347075160         0.0000000000         0.0000000000         0.0000000000         0.0000000000        23.4048044993    14 
   59     1         6.4596250000       -13.0693839139        47.1754766929        -6.6347083601         0.0000000000         0.0000000000         0.0000000000         0.0000000000         0.0000000000     0 
   60     1         9.0434750000         3.4851690437        48.3492386764        -6.6347080882         0.0000000000        -0.0000000000         0.0000000000         0.0000000000        23.4048004605    14 
   61     1         6.4596250000        -9.8746456238        46.6724358062        -6.6347084649         0.0000000000         0.0000000000         0.0000000000         0.0000000000         0.0000000000     0 
   62     1         9.0434750000       -11.3267993921        47.8461978167        -6.6347083809         0.0000000000        -0.0000000000         0.0000000000         0.0000000000         0.0000000000     0 
   63     1         6.4596250000        -6.6799073338        46.1693949616        -6.6347083809         0.0000000000         0.0000000000         0.0000000000         0.0000000000        19.0204828385    10 
   64     1         9.0434750000        -8.1320611020        47.3431569722        -6.6347084649         0.0000000000         0.0000000000         0.0000000000         0.0000000000         0.0000000000     0 
   65     1         6.4596250000        -3.4851690437        45.6663541020        -6.6347080882         0.0000000000         0.0000000000         0.0000000000         0.0000000000        23.4048004596    14 
   66     1         3.8757750000        -4.9373228119        46.8401160854        -6.6347083601         0.0000000000         0.0000000000         0.0000000000         0.0000000000        24.9629087614    14 
   67     1         6.4596250000        -0.2904307536        45.1633132172        -6.6347075160         0.0000000000        -0.0000000000         0.0000000000         0.0000000000        23.4048044993    14 
   68     1         3.8757750000        -1.7425845219        46.3370752445        -6.6347080418         0.0000000000         0.0000000000         0.0000000000         0.0000000000        23.4047973862    14 
   69     1         6.4596250000         0.5808615073        50.6967634259        -6.6346884754         0.0000000000         0.0000000000         0.0000000000         0.0000000000        23.4048498063    14 
   70     1         9.0434750000        -0.8712922609        51.8705276060        -6.6346770023         0.0000000000         0.0000000000         0.0000000000         0.0000000000        23.4050087966    14 
   71     1         6.4596250000       -14.2311069285        50.1937222040        -6.6346966334         0.0000000000         0.0000000000         0.0000000000         0.0000000000         0.0000000000     0 
   72     1         9.0434750000         2.3234460291        51.3674854893        -6.6346896522         0.0000000000         0.0000000000         0.0000000000         0.0000000000        23.4049238073    14 
   73     1         6.4596250000       -11.0363686384        49.6906811404        -6.6347015774         0.0000000000         0.0000000000         0.0000000000         0.0000000000         0.0000000000     0 
   74     1         9.0434750000       -12.4885224066        50.8644438846        -6.6346973421         0.0000000000         0.0000000000         0.0000000000         0.0000000000         0.0000000000     0 
   75     1         6.4596250000        -7.8416303483        49.1876401726        -6.6347045628         0.0000000000        -0.0000000000         0.0000000000         0.0000000000         0.0000000000     0 
   76     1         9.0434750000        -9.2937841166        50.3614025896        -6.6347019997         0.0000000000        -0.0000000000         0.0000000000         0.0000000000         0.0000000000     0 
   77     1         6.4596250000        -4.6468920583        48.6845992626        -6.6347063636         0.0000000000        -0.0000000000         0.0000000000         0.0000000000        25.1745260357    12 
   78     1         9.0434750000        -6.0990458265        49.8583614818        -6.6347048188         0.0000000000        -0.0000000000         0.0000000000         0.0000000000        25.8082469387    12 
   79     1         6.4596250000        -1.4521537682        48.1815583877        -6.6347074288         0.0000000000         0.0000000000         0.0000000000         0.0000000000        23.4047988541    14 
   80     1         9.0434750000        -2.9043075364        49.3553204873        -6.6347065131         0.0000000000         0.0000000000         0.0000000000         0.0000000000        23.4048113153    14 
   81     1         6.4596250000        -3.7755997974        54.2180824283        -6.6340919417         0.0000000000        -0.0000000000         0.0000000000         0.0000000000        23.4066828952    12 
   82     1         6.4596250000        -0.5808615073        53.7150280631        -6.6343174294         0.0000000000        -0.0000000000         0.0000000000         0.0000000000        23.4059377972    14 
   83     1         9.0434750000        -2.0330152755        54.8888362548        -6.6341487732         0.0000000000         0.0000000000         0.0000000000         0.0000000000        23.4091629960    14 
   84     1         6.4596250000         2.6138767828        53.2119790507        -6.6344647910         0.0000000000         0.0000000000         0.0000000000         0.0000000000        23.4054861692    14 
   85     1         9.0434750000         1.1617230146        54.3857689559        -6.6343478103         0.0000000000         0.0000000000         0.0000000000         0.0000000000        23.4074431681    14 
   86     1         6.4596250000       -12.1980916530        52.7089332759        -6.6345584704         0.0000000000         0.0000000000         0.0000000000         0.0000000000         0.0000000000     0 
   87     1         9.0434750000       -13.6502454212        53.8827121192        -6.6344816133         0.0000000000        -0.0000000000         0.0000000000         0.0000000000         0.0000000000     0 
   88     1         6.4596250000        -9.0033533629        52.2058894591        -6.6346169315        -0.0000000000         0.0000000000         0.0000000000         0.0000000000         0.0000000000     0 
   89     1         9.0434750000       -10.4555071311        53.3796616120        -6.6345680591         0.0000000000         0.0000000000         0.0000000000         0.0000000000         0.0000000000     0 
   90     1         6.4596250000        -5.8086150728        51.7028468263        -6.6346529791         0.0000000000        -0.0000000000         0.0000000000         0.0000000000        27.1988860476    11 
   91     1         9.0434750000        -7.2607688411        52.8766149330        -6.6346225118         0.0000000000        -0.0000000000         0.0000000000         0.0000000000         0.0000000000     0 
   92     1         6.4596250000        -2.6138767828        51.1998049096        -6.6346750396         0.0000000000         0.0000000000         0.0000000000         0.0000000000        23.4048864415    14 
   93     1         9.0434750000        -4.0660305510        52.3735705694        -6.6346562743         0.0000000000        -0.0000000000         0.0000000000         0.0000000000        25.2692547066    15 
   94     1         6.4596250000        -4.9373228119        57.2369909091        -6.6469188759         0.0000000000         0.0000000000         0.0000000000         0.0000000000        24.9840295446    12 
   95     1         9.0434750000        -6.3894765801        58.4122886319        -6.6426302651         0.0000000000         0.0000000000         0.0000000000         0.0000000000        21.8634202253    13 
   96     1         6.4596250000        -1.7425845219        56.7336750100        -6.6215678883        -0.0000000000         0.0000000000         0.0000000000         0.0000000000        23.4272088839    14 
   97     1         9.0434750000        -3.1947382901        57.9083728321        -6.6074047292         0.0000000000        -0.0000000000         0.0000000000         0.0000000000        23.4835580338    14 
   98     1         6.4596250000         1.4521537682        56.2304673597        -6.6316581416         0.0000000000         0.0000000000         0.0000000000         0.0000000000        23.4185888496    14 
   99     1         9.0434750000        -0.0000000000        57.4047978753        -6.6262035350         0.0000000000         0.0000000000         0.0000000000         0.0000000000        23.4548691333    14 
  100     1         6.4596250000       -13.3598146676        55.7273254781        -6.6326871574         0.0000000000         0.0000000000         0.0000000000         0.0000000000         0.0000000000     0 
  101     1         9.0434750000       -14.8119684358        56.9014322016        -6.6226004984         0.0000000000         0.0000000000         0.0000000000         0.0000000000         0.0000000000     0 
  102     1         6.4596250000       -10.1650763775        55.2242234804        -6.6332962904         0.0000000000         0.0000000000         0.0000000000         0.0000000000         0.0000000000     0 
  103     1         9.0434750000       -11.6172301457        56.3981942582        -6.6332982675         0.0000000000         0.0000000000         0.0000000000         0.0000000000         0.0000000000     0 
  104     1         6.4596250000        -6.9703380874        54.7211456422        -6.6337601185         0.0000000000         0.0000000000         0.0000000000         0.0000000000        17.5454896127    12 
  105     1         9.0434750000        -8.4224918556        55.8950339868        -6.6335137082         0.0000000000        -0.0000000000         0.0000000000         0.0000000000         0.0000000000     0 
  106     1         9.0434750000        -5.2277535656        55.3919208428        -6.6338748826         0.0000000000        -0.0000000000         0.0000000000         0.0000000000        26.5853579893    13 
  107     1         6.4596250000        -6.0990458265        60.2676274380        -6.6395702343         0.0000000000        -0.0000000000         0.0000000000         0.0000000000        25.4011242367    11 
  108     1         9.0434750000        -7.5511995947        61.4637262867        -6.5800483966        -0.0000000000        -0.0000000000         0.0000000000         0.0000000000         0.0000000000     0 
  109     1         6.4596250000        -2.9043075364        59.7596950182        -6.6362797411         0.0000000000        -0.0000000000         0.0000000000         0.0000000000        24.9508815731    14 
  110     1         9.0434750000        -4.3564613046        60.9488870098        -3.1675385915         0.0000000000        -0.0000000000         0.0000000000         0.0000000000        23.2378351304    13 
  111     1         6.4596250000         0.2904307536        59.2535229708        -6.5734667753         0.0000000000        -0.0000000000         0.0000000000         0.0000000000        23.5928170808    14 
  112     1         9.0434750000        -1.1617230146        60.4374545734        -6.5650953366         0.0000000000         0.0000000000         0.0000000000         0.0000000000        24.3540599937    14 
  113     1         6.4596250000       -14.5215376821        58.7485207314        -6.6454684168         0.0000000000         0.0000000000         0.0000000000         0.0000000000         0.0000000000     0 
  114     1         9.0434750000       -15.9736914503        59.9287761059        -6.6015103898         0.0000000000        -0.0000000000         0.0000000000         0.0000000000         0.0000000000     0 
  115     1         6.4596250000       -11.3267993921        58.2442678924        -6.6219332339         0.0000000000         0.0000000000         0.0000000000         0.0000000000         0.0000000000     0 
  116     1         9.0434750000       -12.7789531603        59.4220914748        -6.6257369562         0.0000000000         0.0000000000         0.0000000000         0.0000000000         0.0000000000     0 
  117     1         6.4596250000        -8.1320611020        57.7404844249        -6.6489345213         0.0000000000         0.0000000000         0.0000000000         0.0000000000         0.0000000000     0 
  118     1         9.0434750000        -9.5842148702        58.9167540563        -6.6635306868        -0.0000000000         0.0000000000         0.0000000000         0.0000000000         0.0000000000     0 
  119     1         6.4596250000        -0.8712922609        62.3292418387        -5.7235690986         0.0000000000         0.0000000000         0.0000000000         0.0000000000        22.6974370916    13 
  120     1         6.4596250000       -15.6832606967        61.8089412204        -6.6429392564         0.0000000000        -0.0000000000         0.0000000000         0.0000000000         0.0000000000     0 
  121     1         6.4596250000       -12.4885224066        61.2917106105        -6.6250554318         0.0000000000         0.0000000000         0.0000000000         0.0000000000         0.0000000000     0 
  122     1         9.0434750000       -13.9406761748        62.5031082600        -3.0760150558         0.0000000000         0.0000000000         0.0000000000         0.0000000000         0.0000000000     0 
  123     1         6.4596250000        -9.2937841166        60.7780571340        -5.8341403784        -0.0000000000        -0.0000000000         0.0000000000         0.0000000000         0.0000000000     0 
  124     1         9.0434750000       -10.7459378848        61.9820910662        -6.4244829284         0.0000000000         0.0000000000         0.0000000000         0.0000000000         0.0000000000     0 
  125     1         1.2919250000         8.1320611020         0.3478200135        -5.7235690984         0.0000000000         0.0000000000         0.0000000000         0.0000000000         0.0000000000     0 
  126     1         3.8757750000        13.0693839139         0.1739535922        -3.0760150558         0.0000000000         0.0000000000         0.0000000000         0.0000000000         0.0000000000     0 
  127     1         1.2919250000        11.3267993921         0.8681206318        -6.6429392564         0.0000000000         0.0000000000         0.0000000000         0.0000000000         0.0000000000     0 
  128     1         3.8757750000        16.2641222040         0.6949707860        -6.4244829284         0.0000000000         0.0000000000         0.0000000000         0.0000000000         0.0000000000     0 
  129     1         1.2919250000        14.5215376821         1.3853512417        -6.6250554318         0.0000000000         0.0000000000         0.0000000000         0.0000000000         0.0000000000     0 
  130     1         3.8757750000         1.4521537682         1.2133355656        -6.5800483966         0.0000000000         0.0000000000         0.0000000000         0.0000000000        25.2985119587    15 
  131     1         1.2919250000        -0.2904307536         1.8990047182        -5.8341403786        -0.0000000000         0.0000000000         0.0000000000         0.0000000000        21.8194730495    14 
  132     1         3.8757750000         4.6468920583         1.7281748425        -3.1675385915         0.0000000000         0.0000000000         0.0000000000         0.0000000000        27.0017841174    11 
  133     1         1.2919250000         2.9043075364         2.4094344142        -6.6395702343         0.0000000000         0.0000000000         0.0000000000         0.0000000000        24.7590591722    16 
  134     1         3.8757750000         7.8416303483         2.2396072788        -6.5650953366         0.0000000000         0.0000000000         0.0000000000         0.0000000000         0.0000000000     0 
  135     1         1.2919250000         6.0990458265         2.9173668340        -6.6362797411         0.0000000000        -0.0000000000         0.0000000000         0.0000000000        28.3520537869    10 
  136     1         3.8757750000        11.0363686384         2.7482857464        -6.6015103898         0.0000000000         0.0000000000         0.0000000000         0.0000000000         0.0000000000     0 
  137     1         1.2919250000         9.2937841166         3.4235388815        -6.5734667753         0.0000000000         0.0000000000         0.0000000000         0.0000000000         0.0000000000     0 
  138     1         3.8757750000        14.2311069285         3.2549703774        -6.6257369562         0.0000000000         0.0000000000         0.0000000000         0.0000000000         0.0000000000     0 
  139     1         1.2919250000        12.4885224066         3.9285411208        -6.6454684168         0.0000000000         0.0000000000         0.0000000000         0.0000000000         0.0000000000     0 
  140     1         3.8757750000        -0.5808615073         3.7603077959        -6.6635306868         0.0000000000         0.0000000000         0.0000000000         0.0000000000        23.5830203468    14 
  141     1         1.2919250000        15.6832606967         4.4327939598        -6.6219332340         0.0000000000         0.0000000000         0.0000000000         0.0000000000         0.0000000000     0 
  142     1         3.8757750000         2.6138767828         4.2647732203        -6.6426302651         0.0000000000         0.0000000000         0.0000000000         0.0000000000        23.5254438907    14 