LAMMPS (11 Aug 2017)
OMP_NUM_THREADS environment is not set. Defaulting to 1 thread. (../comm.cpp:90)
  using 1 OpenMP thread(s) per MPI task
units        metal
dimension    3
boundary     p p p
box          tilt large
atom_style   atomic

read_data    atoms.lammps
  triclinic box = (0 0 0) to (5.1677 18.0067 62.6771) with tilt (1e-015 5.1677 -18.0067)
WARNING: Triclinic box skew is large (../domain.cpp:197)
  1 by 1 by 1 MPI processor grid
  reading atoms ...
  248 atoms

pair_style eam/fs
pair_coeff * * "C:\Users\adamj\dropbox\code_db\supporting_manuscript_code\first-principles-zr-grain-boundaries\data\potential\Zr_3.eam.fs" Zr


compute peatom all pe/atom
compute datom all displace/atom
compute voratom all voronoi/atom

thermo_style custom step atoms pe ke etotal fmax
thermo_modify format float %20.10f
thermo 1

dump 1 all custom 100 dump.*.txt id type x y z c_peatom c_datom[1] c_datom[2] c_datom[3] c_datom[4] c_voratom[1] c_voratom[2]
dump_modify 1 format line "%5d %5d %20.10f %20.10f %20.10f %20.10f %20.10f %20.10f %20.10f %20.10f %20.10f %5.f"

min_style cg
minimize 0.0 1.0e-6 10000 100000
WARNING: Using 'neigh_modify every 1 delay 0 check yes' setting during minimization (../min.cpp:168)
Neighbor list info ...
  update every 1 steps, delay 0 steps, check yes
  max neighbors/atom: 2000, page size: 100000
  master list distance cutoff = 9.6
  ghost atom cutoff = 9.6
  binsize = 4.8, bins = 3 8 14
  1 neighbor lists, perpetual/occasional/extra = 1 0 0
  (1) pair eam/fs, perpetual
      attributes: half, newton on
      pair build: half/bin/newton/tri
      stencil: half/bin/3d/newton/tri
      bin: standard
Per MPI rank memory allocation (min/avg/max) = 6.826 | 6.826 | 6.826 Mbytes
Step Atoms PotEng KinEng TotEng Fmax 
       0      248     -1608.6702545501         0.0000000000     -1608.6702545501        23.0301117157 
       1      248     -1625.8679350970         0.0000000000     -1625.8679350970        13.4843640753 
       2      248     -1633.9357023171         0.0000000000     -1633.9357023171         3.0514188019 
       3      248     -1636.0467128240         0.0000000000     -1636.0467128240         1.3363698342 
       4      248     -1637.0518113911         0.0000000000     -1637.0518113911         0.4898941676 
       5      248     -1637.4135259199         0.0000000000     -1637.4135259199         0.2691708469 
       6      248     -1637.4959394239         0.0000000000     -1637.4959394239         0.0881697672 
       7      248     -1637.5237973105         0.0000000000     -1637.5237973105         0.0429765962 
       8      248     -1637.5313955741         0.0000000000     -1637.5313955741         0.0381051798 
       9      248     -1637.5352533568         0.0000000000     -1637.5352533568         0.0306966460 
      10      248     -1637.5380392786         0.0000000000     -1637.5380392786         0.0175993865 
      11      248     -1637.5403716835         0.0000000000     -1637.5403716835         0.0171468559 
      12      248     -1637.5417913670         0.0000000000     -1637.5417913670         0.0139697298 
      13      248     -1637.5428506488         0.0000000000     -1637.5428506488         0.0196191194 
      14      248     -1637.5438034722         0.0000000000     -1637.5438034722         0.0141750516 
      15      248     -1637.5443841209         0.0000000000     -1637.5443841209         0.0063545404 
      16      248     -1637.5446441723         0.0000000000     -1637.5446441723         0.0038206306 
      17      248     -1637.5447450490         0.0000000000     -1637.5447450490         0.0049929947 
      18      248     -1637.5447868573         0.0000000000     -1637.5447868573         0.0026702770 
      19      248     -1637.5448186814         0.0000000000     -1637.5448186814         0.0015282156 
      20      248     -1637.5448401512         0.0000000000     -1637.5448401512         0.0014795001 
      21      248     -1637.5448556633         0.0000000000     -1637.5448556633         0.0024712885 
      22      248     -1637.5448776652         0.0000000000     -1637.5448776652         0.0017267130 
      23      248     -1637.5449224191         0.0000000000     -1637.5449224191         0.0021652390 
      24      248     -1637.5449671691         0.0000000000     -1637.5449671691         0.0029600709 
      25      248     -1637.5449954243         0.0000000000     -1637.5449954243         0.0027494293 
      26      248     -1637.5450202302         0.0000000000     -1637.5450202302         0.0014417407 
      27      248     -1637.5450421823         0.0000000000     -1637.5450421823         0.0018578553 
      28      248     -1637.5450659323         0.0000000000     -1637.5450659323         0.0023080256 
      29      248     -1637.5450798327         0.0000000000     -1637.5450798327         0.0014417724 
      30      248     -1637.5450855804         0.0000000000     -1637.5450855804         0.0006138927 
      31      248     -1637.5450879159         0.0000000000     -1637.5450879159         0.0003471915 
      32      248     -1637.5450893144         0.0000000000     -1637.5450893144         0.0003674761 
      33      248     -1637.5450903962         0.0000000000     -1637.5450903962         0.0005142106 
      34      248     -1637.5450909692         0.0000000000     -1637.5450909692         0.0002633685 
      35      248     -1637.5450912317         0.0000000000     -1637.5450912317         0.0001169285 
      36      248     -1637.5450913567         0.0000000000     -1637.5450913567         0.0001579684 
      37      248     -1637.5450914658         0.0000000000     -1637.5450914658         0.0001772161 
      38      248     -1637.5450915771         0.0000000000     -1637.5450915771         0.0001120120 
      39      248     -1637.5450916731         0.0000000000     -1637.5450916731         0.0000709616 
      40      248     -1637.5450917147         0.0000000000     -1637.5450917147         0.0000797404 
      41      248     -1637.5450917327         0.0000000000     -1637.5450917327         0.0000609310 
      42      248     -1637.5450917468         0.0000000000     -1637.5450917468         0.0000456532 
      43      248     -1637.5450917573         0.0000000000     -1637.5450917573         0.0000269113 
      44      248     -1637.5450917617         0.0000000000     -1637.5450917617         0.0000217250 
      45      248     -1637.5450917629         0.0000000000     -1637.5450917629         0.0000129235 
      46      248     -1637.5450917633         0.0000000000     -1637.5450917633         0.0000035275 
      47      248     -1637.5450917633         0.0000000000     -1637.5450917633         0.0000030055 
      48      248     -1637.5450917634         0.0000000000     -1637.5450917634         0.0000020931 
      49      248     -1637.5450917634         0.0000000000     -1637.5450917634         0.0000016177 
      50      248     -1637.5450917634         0.0000000000     -1637.5450917634         0.0000009618 
      51      248     -1637.5450917634         0.0000000000     -1637.5450917634         0.0000011236 
      52      248     -1637.5450917634         0.0000000000     -1637.5450917634         0.0000011827 
      53      248     -1637.5450917634         0.0000000000     -1637.5450917634         0.0000012657 
      54      248     -1637.5450917634         0.0000000000     -1637.5450917634         0.0000008524 
      55      248     -1637.5450917634         0.0000000000     -1637.5450917634         0.0000006546 
      56      248     -1637.5450917635         0.0000000000     -1637.5450917635         0.0000006516 
      57      248     -1637.5450917634         0.0000000000     -1637.5450917634         0.0000003380 
      58      248     -1637.5450917634         0.0000000000     -1637.5450917634         0.0000004291 
      59      248     -1637.5450917634         0.0000000000     -1637.5450917634         0.0000005341 
      60      248     -1637.5450917635         0.0000000000     -1637.5450917635         0.0000006256 
      61      248     -1637.5450917635         0.0000000000     -1637.5450917635         0.0000006226 
      62      248     -1637.5450917635         0.0000000000     -1637.5450917635         0.0000003359 
      63      248     -1637.5450917635         0.0000000000     -1637.5450917635         0.0000004811 
      64      248     -1637.5450917635         0.0000000000     -1637.5450917635         0.0000005030 
      65      248     -1637.5450917635         0.0000000000     -1637.5450917635         0.0000003150 
      66      248     -1637.5450917634         0.0000000000     -1637.5450917634         0.0000002109 
      67      248     -1637.5450917635         0.0000000000     -1637.5450917635         0.0000003134 
      68      248     -1637.5450917635         0.0000000000     -1637.5450917635         0.0000001862 
      69      248     -1637.5450917635         0.0000000000     -1637.5450917635         0.0000001536 
Loop time of 0.106004 on 1 procs for 69 steps with 248 atoms

73.7% CPU use with 1 MPI tasks x 1 OpenMP threads

Minimization stats:
  Stopping criterion = force tolerance
  Energy initial, next-to-last, final = 
        -1608.67025455     -1637.54509176     -1637.54509176
  Force two-norm initial, final = 71.8639 8.93608e-007
  Force max component initial, final = 23.0301 1.53596e-007
  Final line search alpha, max atom move = 1 1.53596e-007
  Iterations, force evaluations = 69 134

MPI task timing breakdown:
Section |  min time  |  avg time  |  max time  |%varavg| %total
---------------------------------------------------------------
Pair    | 0.089018   | 0.089018   | 0.089018   |   0.0 | 83.98
Neigh   | 0          | 0          | 0          |   0.0 |  0.00
Comm    | 0.001987   | 0.001987   | 0.001987   |   0.0 |  1.87
Output  | 0          | 0          | 0          |   0.0 |  0.00
Modify  | 0          | 0          | 0          |   0.0 |  0.00
Other   |            | 0.015      |            |       | 14.15

Nlocal:    248 ave 248 max 248 min
Histogram: 1 0 0 0 0 0 0 0 0 0
Nghost:    3004 ave 3004 max 3004 min
Histogram: 1 0 0 0 0 0 0 0 0 0
Neighs:    18324 ave 18324 max 18324 min
Histogram: 1 0 0 0 0 0 0 0 0 0

Total # of neighbors = 18324
Ave neighs/atom = 73.8871
Neighbor list builds = 0
Dangerous builds = 0
Total wall time: 0:00:00
