Header

248 atoms
1 atom types

0.0    5.167700000 xlo xhi
0.0   18.006706726 ylo yhi
0.0   62.377061852 zlo zhi

0.000000000000001        0.000000000000003        -36.013413451657151      xy xz yz

Atoms

       1    1       3.875775000000001      -16.264122203974196       31.859252021312841
       2    1       1.291925000000001      -17.716275972186178       33.033013937887524
       3    1       3.875775000000001      -13.069383913907835       31.356211199923692
       4    1       1.291925000000002      -14.521537682119817       32.529973116498375
       5    1       1.291925000000002      -11.326799392053458       32.026932295109226
       6    1       1.291925000000002       -8.132061101987096       31.523891473720077
       7    1       3.875775000000001      -17.425845218543781       34.877496949647742
       8    1       1.291925000000002      -18.877998986755763       36.051258866222433
       9    1       3.875775000000001      -14.231106928477420       34.374456128258593
      10    1       1.291925000000002      -15.683260696689398       35.548218044833284
      11    1       3.875775000000001      -11.036368638411062       33.871415306869444
      12    1       1.291925000000002      -12.488522406623037       35.045177223444128
      13    1       3.875775000000002       -7.841630348344702       33.368374485480288
      14    1       1.291925000000002       -9.293784116556679       34.542136402054979
      15    1       3.875775000000002       -4.646892058278341       32.865333664091139
      16    1       1.291925000000002       -6.099045826490321       34.039095580665830
      17    1       3.875775000000002       -1.452153768211977       32.362292842701990
      18    1       1.291925000000003       -2.904307536423962       33.536054759276681
      19    1       3.875775000000001      -21.782306523179727       38.398782699371793
      20    1       3.875775000000001      -18.587568233113366       37.895741877982651
      21    1       1.291925000000002      -20.039722001325348       39.069503794557328
      22    1       3.875775000000001      -15.392829943047003       37.392701056593502
      23    1       1.291925000000002      -16.844983711258990       38.566462973168179
      24    1       3.875775000000002      -12.198091652980645       36.889660235204353
      25    1       1.291925000000002      -13.650245421192629       38.063422151779029
      26    1       3.875775000000002       -9.003353362914286       36.386619413815197
      27    1       1.291925000000002      -10.455507131126266       37.560381330389873
      28    1       3.875775000000002       -5.808615072847925       35.883578592426048
      29    1       1.291925000000003       -7.260768841059908       37.057340509000724
      30    1       3.875775000000002       -2.613876782781565       35.380537771036899
      31    1       1.291925000000003       -4.066030550993549       36.554299687611575
      32    1       3.875775000000001      -22.944029537749309       41.417027627706695
      33    1       1.291925000000002      -24.396183305961294       42.590789544281378
      34    1       3.875775000000001      -19.749291247682951       40.913986806317546
      35    1       1.291925000000002      -21.201445015894933       42.087748722892229
      36    1       3.875775000000002      -16.554552957616590       40.410945984928397
      37    1       1.291925000000002      -18.006706725828572       41.584707901503080
      38    1       3.875775000000002      -13.359814667550230       39.907905163539240
      39    1       1.291925000000002      -14.811968435762209       41.081667080113931
      40    1       3.875775000000002      -10.165076377483871       39.404864342150091
      41    1       1.291925000000003      -11.617230145695851       40.578626258724782
      42    1       3.875775000000002       -6.970338087417510       38.901823520760942
      43    1       1.291925000000003       -8.422491855629493       40.075585437335626
      44    1       1.291925000000003       -5.227753565563134       39.572544615946477
      45    1       3.875775000000001      -24.105752552318897       44.435272556041596
      46    1       1.291925000000002      -25.557906320530883       45.609034472616273
      47    1       3.875775000000002      -20.911014262252539       43.932231734652447
      48    1       1.291925000000002      -22.363168030464522       45.105993651227124
      49    1       3.875775000000002      -17.716275972186182       43.429190913263298
      50    1       1.291925000000002      -19.168429740398160       44.602952829837974
      51    1       3.875775000000002      -14.521537682119817       42.926150091874149
      52    1       1.291925000000003      -15.973691450331799       44.099912008448833
      53    1       3.875775000000002      -11.326799392053459       42.423109270485000
      54    1       1.291925000000003      -12.778953160265438       43.596871187059676
      55    1       3.875775000000003       -8.132061101987098       41.920068449095844
      56    1       1.291925000000003       -9.584214870199078       43.093830365670527
      57    1       3.875775000000002      -25.267475566888486       47.453517484376498
      58    1       1.291925000000002      -26.719629335100468       48.627279400951181
      59    1       3.875775000000002      -22.072737276822121       46.950476662987349
      60    1       1.291925000000002      -23.524891045034106       48.124238579562032
      61    1       3.875775000000002      -18.877998986755763       46.447435841598200
      62    1       1.291925000000003      -20.330152754967749       47.621197758172883
      63    1       3.875775000000002      -15.683260696689402       45.944395020209051
      64    1       1.291925000000003      -17.135414464901388       47.118156936783734
      65    1       3.875775000000003      -12.488522406623044       45.441354198819901
      66    1       1.291925000000003      -13.940676174835023       46.615116115394585
      67    1       3.875775000000003       -9.293784116556683       44.938313377430745
      68    1       1.291925000000003      -10.745937884768665       46.112075294005436
      69    1       3.875775000000002      -26.429198581458067       50.471762412711392
      70    1       1.291925000000002      -27.881352349670053       51.645524329286076
      71    1       3.875775000000002      -23.234460291391709       49.968721591322243
      72    1       1.291925000000003      -24.686614059603688       51.142483507896934
      73    1       3.875775000000002      -20.039722001325348       49.465680769933094
      74    1       1.291925000000003      -21.491875769537330       50.639442686507785
      75    1       3.875775000000003      -16.844983711258990       48.962639948543945
      76    1       1.291925000000003      -18.297137479470969       50.136401865118636
      77    1       3.875775000000003      -13.650245421192626       48.459599127154796
      78    1       1.291925000000003      -15.102399189404611       49.633361043729487
      79    1       3.875775000000003      -10.455507131126266       47.956558305765654
      80    1       1.291925000000003      -11.907660899338254       49.130320222340337
      81    1       3.875775000000002      -30.785659886094017       53.993048162435457
      82    1       3.875775000000002      -27.590921596027648       53.490007341046301
      83    1       1.291925000000003      -29.043075364239641       54.663769257620977
      84    1       3.875775000000002      -24.396183305961291       52.986966519657152
      85    1       1.291925000000003      -25.848337074173273       54.160728436231828
      86    1       3.875775000000003      -21.201445015894933       52.483925698268003
      87    1       1.291925000000003      -22.653598784106915       53.657687614842679
      88    1       3.875775000000003      -18.006706725828572       51.980884876878854
      89    1       1.291925000000003      -19.458860494040557       53.154646793453530
      90    1       3.875775000000003      -14.811968435762214       51.477844055489705
      91    1       1.291925000000003      -16.264122203974196       52.651605972064388
      92    1       3.875775000000003      -11.617230145695849       50.974803234100548
      93    1       1.291925000000004      -13.069383913907835       52.148565150675239
      94    1       3.875775000000002      -31.947382900663598       57.011293090770351
      95    1       1.291925000000003      -33.399536668875584       58.185055007345028
      96    1       3.875775000000002      -28.752644610597244       56.508252269381195
      97    1       1.291925000000003      -30.204798378809226       57.682014185955879
      98    1       3.875775000000003      -25.557906320530876       56.005211447992046
      99    1       1.291925000000003      -27.010060088742858       57.178973364566730
     100    1       3.875775000000003      -22.363168030464522       55.502170626602897
     101    1       1.291925000000003      -23.815321798676500       56.675932543177581
     102    1       3.875775000000003      -19.168429740398160       54.999129805213748
     103    1       1.291925000000003      -20.620583508610142       56.172891721788432
     104    1       3.875775000000003      -15.973691450331804       54.496088983824599
     105    1       1.291925000000004      -17.425845218543781       55.669850900399283
     106    1       1.291925000000004      -14.231106928477420       55.166810079010133
     107    1       3.875775000000002      -33.109105915233187       60.029538019105246
     108    1       1.291925000000003      -34.561259683445172       61.203299935679929
     109    1       3.875775000000003      -29.914367625166829       59.526497197716097
     110    1       1.291925000000003      -31.366521393378807       60.700259114290787
     111    1       3.875775000000003      -26.719629335100468       59.023456376326948
     112    1       1.291925000000003      -28.171783103312446       60.197218292901631
     113    1       3.875775000000003      -23.524891045034103       58.520415554937799
     114    1       1.291925000000003      -24.977044813246085       59.694177471512482
     115    1       3.875775000000003      -20.330152754967749       58.017374733548650
     116    1       1.291925000000004      -21.782306523179727       59.191136650123333
     117    1       3.875775000000003      -17.135414464901388       57.514333912159501
     118    1       1.291925000000004      -18.587568233113366       58.688095828734184
     119    1       3.875775000000003      -27.881352349670053       62.041701304661849
     120    1       3.875775000000003      -24.686614059603691       61.538660483272700
     121    1       3.875775000000003      -21.491875769537330       61.035619661883551
     122    1       1.291925000000004      -22.944029537749309       62.209381578458235
     123    1       3.875775000000004      -18.297137479470969       60.532578840494402
     124    1       1.291925000000004      -19.749291247682955       61.706340757069086
     125    1       3.875774999999999        1.742584521854381        0.670721095185537
     126    1       1.291925000000000        0.290430753642399        1.844483011760214
     127    1       3.875775000000000        4.937322811920740        0.167680273796387
     128    1       1.291925000000000        3.485169043708757        1.341442190371064
     129    1       1.291925000000000        6.679907333775120        0.838401368981918
     130    1       1.291925000000000        9.874645623841477        0.335360547592768
     131    1       3.875775000000000        0.580861507284792        3.688966023520436
     132    1       1.291925000000000       -0.871292260927186        4.862727940095117
     133    1       3.875775000000000        3.775599797351151        3.185925202131290
     134    1       1.291925000000000        2.323446029139173        4.359687118705967
     135    1       3.875775000000000        6.970338087417513        2.682884380742140
     136    1       1.291925000000000        5.518184319205535        3.856646297316817
     137    1       3.875775000000000       10.165076377483874        2.179843559352986
     138    1       1.291925000000001        8.712922609271896        3.353605475927663
     139    1       3.875775000000000       13.359814667550232        1.676802737963836
     140    1       1.291925000000001       11.907660899338257        2.850564654538516
     141    1       3.875775000000000       16.554552957616597        1.173761916574685
     142    1       1.291925000000001       15.102399189404615        2.347523833149366
     143    1       3.875775000000000       -3.775599797351151        7.210251773244486
     144    1       3.875775000000000       -0.580861507284790        6.707210951855336
     145    1       1.291925000000000       -2.033015275496774        7.880972868430024
     146    1       3.875775000000000        2.613876782781568        6.204170130466186
     147    1       1.291925000000000        1.161723014569585        7.377932047040874
     148    1       3.875775000000000        5.808615072847931        5.701129309077039
     149    1       1.291925000000001        4.356461304635946        6.874891225651724
     150    1       3.875775000000000        9.003353362914295        5.198088487687885
     151    1       1.291925000000001        7.551199594702307        6.371850404262569
     152    1       3.875775000000000       12.198091652980654        4.695047666298735
     153    1       1.291925000000001       10.745937884768667        5.868809582873419
     154    1       3.875775000000001       15.392829943047012        4.192006844909585
     155    1       1.291925000000001       13.940676174835032        5.365768761484269
     156    1       3.875775000000000       -4.937322811920736       10.228496701579388
     157    1       1.291925000000000       -6.389476580132720       11.402258618154072
     158    1       3.875775000000000       -1.742584521854378        9.725455880190237
     159    1       1.291925000000000       -3.194738290066359       10.899217796764923
     160    1       3.875775000000000        1.452153768211984        9.222415058801088
     161    1       1.291925000000001       -0.000000000000001       10.396176975375772
     162    1       3.875775000000000        4.646892058278345        8.719374237411934
     163    1       1.291925000000001        3.194738290066358        9.893136153986626
     164    1       3.875775000000000        7.841630348344706        8.216333416022783
     165    1       1.291925000000001        6.389476580132720        9.390095332597475
     166    1       3.875775000000001       11.036368638411062        7.713292594633634
     167    1       1.291925000000001        9.584214870199082        8.887054511208325
     168    1       1.291925000000001       12.778953160265440        8.384013689819172
     169    1       3.875775000000000       -6.099045826490321       13.246741629914286
     170    1       1.291925000000000       -7.551199594702304       14.420503546488971
     171    1       3.875775000000000       -2.904307536423960       12.743700808525137
     172    1       1.291925000000001       -4.356461304635944       13.917462725099822
     173    1       3.875775000000000        0.290430753642398       12.240659987135988
     174    1       1.291925000000001       -1.161723014569582       13.414421903710672
     175    1       3.875775000000000        3.485169043708759       11.737619165746834
     176    1       1.291925000000001        2.033015275496776       12.911381082321524
     177    1       3.875775000000001        6.679907333775125       11.234578344357683
     178    1       1.291925000000001        5.227753565563138       12.408340260932373
     179    1       3.875775000000001        9.874645623841483       10.731537522968535
     180    1       1.291925000000001        8.422491855629499       11.905299439543223
     181    1       3.875775000000000       -7.260768841059907       16.264986558249188
     182    1       1.291925000000001       -8.712922609271891       17.438748474823871
     183    1       3.875775000000000       -4.066030550993548       15.761945736860039
     184    1       1.291925000000001       -5.518184319205530       16.935707653434726
     185    1       3.875775000000000       -0.871292260927190       15.258904915470888
     186    1       1.291925000000001       -2.323446029139171       16.432666832045573
     187    1       3.875775000000001        2.323446029139171       14.755864094081739
     188    1       1.291925000000001        0.871292260927191       15.929626010656422
     189    1       3.875775000000001        5.518184319205536       14.252823272692586
     190    1       1.291925000000001        4.066030550993553       15.426585189267271
     191    1       3.875775000000001        8.712922609271892       13.749782451303437
     192    1       1.291925000000002        7.260768841059914       14.923544367878122
     193    1       3.875775000000000       -8.422491855629493       19.283231486584089
     194    1       1.291925000000001       -9.874645623841475       20.456993403158773
     195    1       3.875775000000000       -5.227753565563133       18.780190665194937
     196    1       1.291925000000001       -6.679907333775115       19.953952581769620
     197    1       3.875775000000001       -2.033015275496772       18.277149843805788
     198    1       1.291925000000001       -3.485169043708757       19.450911760380468
     199    1       3.875775000000001        1.161723014569586       17.774109022416638
     200    1       1.291925000000001       -0.290430753642395       18.947870938991322
     201    1       3.875775000000001        4.356461304635951       17.271068201027486
     202    1       1.291925000000002        2.904307536423967       18.444830117602173
     203    1       3.875775000000001        7.551199594702310       16.768027379638337
     204    1       1.291925000000002        6.099045826490325       17.941789296213024
     205    1       3.875775000000000      -12.778953160265438       22.804517236308136
     206    1       3.875775000000000       -9.584214870199078       22.301476414918991
     207    1       1.291925000000001      -11.036368638411060       23.475238331493674
     208    1       3.875775000000001       -6.389476580132719       21.798435593529842
     209    1       1.291925000000001       -7.841630348344701       22.972197510104525
     210    1       3.875775000000001       -3.194738290066357       21.295394772140686
     211    1       1.291925000000001       -4.646892058278342       22.469156688715373
     212    1       3.875775000000001        0.000000000000005       20.792353950751540
     213    1       1.291925000000002       -1.452153768211980       21.966115867326224
     214    1       3.875775000000001        3.194738290066367       20.289313129362391
     215    1       1.291925000000002        1.742584521854382       21.463075045937074
     216    1       3.875775000000001        6.389476580132722       19.786272307973242
     217    1       1.291925000000002        4.937322811920740       20.960034224547925
     218    1       3.875775000000000      -13.940676174835026       25.822762164643041
     219    1       1.291925000000001      -15.392829943047008       26.996524081217729
     220    1       3.875775000000001      -10.745937884768663       25.319721343253892
     221    1       1.291925000000001      -12.198091652980645       26.493483259828572
     222    1       3.875775000000001       -7.551199594702304       24.816680521864743
     223    1       1.291925000000001       -9.003353362914284       25.990442438439427
     224    1       3.875775000000001       -4.356461304635943       24.313639700475591
     225    1       1.291925000000002       -5.808615072847926       25.487401617050278
     226    1       3.875775000000001       -1.161723014569584       23.810598879086442
     227    1       1.291925000000002       -2.613876782781564       24.984360795661125
     228    1       3.875775000000001        2.033015275496778       23.307558057697292
     229    1       1.291925000000002        0.580861507284797       24.481319974271976
     230    1       1.291925000000002        3.775599797351159       23.978279152882827
     231    1       3.875775000000001      -15.102399189404609       28.841007092977939
     232    1       1.291925000000001      -16.554552957616593       30.014769009552623
     233    1       3.875775000000001      -11.907660899338250       28.337966271588790
     234    1       1.291925000000001      -13.359814667550230       29.511728188163474
     235    1       3.875775000000001       -8.712922609271889       27.834925450199641
     236    1       1.291925000000002      -10.165076377483871       29.008687366774325
     237    1       3.875775000000001       -5.518184319205531       27.331884628810492
     238    1       1.291925000000002       -6.970338087417511       28.505646545385176
     239    1       3.875775000000001       -2.323446029139169       26.828843807421343
     240    1       1.291925000000002       -3.775599797351151       28.002605723996023
     241    1       3.875775000000002        0.871292260927197       26.325802986032194
     242    1       1.291925000000002       -0.580861507284792       27.499564902606874
     243    1       3.875775000000001       -9.874645623841474       30.853170378534543
     244    1       3.875775000000001       -6.679907333775115       30.350129557145394
     245    1       3.875775000000002       -3.485169043708753       29.847088735756241
     246    1       1.291925000000002       -4.937322811920739       31.020850652330928
     247    1       3.875775000000002       -0.290430753642392       29.344047914367092
     248    1       1.291925000000002       -1.742584521854377       30.517809830941776
