ITEM: TIMESTEP
0
ITEM: NUMBER OF ATOMS
248
ITEM: BOX BOUNDS xy xz yz pp pp pp
0.0000000000000000e+000 5.1677000000000035e+000 1.0000000000000001e-015
-3.6013413451657151e+001 1.8006706726000001e+001 2.9999999999999998e-015
0.0000000000000000e+000 6.2377061851999997e+001 -3.6013413451657151e+001
ITEM: ATOMS id type x y z c_peatom c_datom[1] c_datom[2] c_datom[3] c_datom[4] c_voratom[1] c_voratom[2] 
    1     1         3.8757750000       -16.2641222040        31.8592520213        -6.6347091852         0.0000000000        -0.0000000000         0.0000000000         0.0000000000         0.0000000000     0 
    2     1         1.2919250000       -17.7162759722        33.0330139379        -6.6347091852        -0.0000000000         0.0000000000         0.0000000000         0.0000000000         0.0000000000     0 
    3     1         3.8757750000       -13.0693839139        31.3562111999        -6.6347091852        -0.0000000000         0.0000000000         0.0000000000         0.0000000000         0.0000000000     0 
    4     1         1.2919250000       -14.5215376821        32.5299731165        -6.6347091852         0.0000000000        -0.0000000000         0.0000000000         0.0000000000         0.0000000000     0 
    5     1         1.2919250000       -11.3267993921        32.0269322951        -6.6347091852         0.0000000000         0.0000000000         0.0000000000         0.0000000000       -26.6782008625    11 
    6     1         1.2919250000        -8.1320611020        31.5238914737        -6.6347091852         0.0000000000         0.0000000000         0.0000000000         0.0000000000       -25.2406711143    12 
    7     1         3.8757750000       -17.4258452185        34.8774969496        -6.6347091852        -0.0000000000         0.0000000000         0.0000000000         0.0000000000         0.0000000000     0 
    8     1         1.2919250000       -18.8779989868        36.0512588662        -6.6347091852         0.0000000000        -0.0000000000         0.0000000000         0.0000000000         0.0000000000     0 
    9     1         3.8757750000       -14.2311069285        34.3744561283        -6.6347091852        -0.0000000000         0.0000000000         0.0000000000         0.0000000000         0.0000000000     0 
   10     1         1.2919250000       -15.6832606967        35.5482180448        -6.6347091852         0.0000000000         0.0000000000         0.0000000000         0.0000000000         0.0000000000     0 
   11     1         3.8757750000       -11.0363686384        33.8714153069        -6.6347091852        -0.0000000000         0.0000000000         0.0000000000         0.0000000000       -24.6988366580    11 
   12     1         1.2919250000       -12.4885224066        35.0451772234        -6.6347091852         0.0000000000         0.0000000000         0.0000000000         0.0000000000       -13.2661927229     8 
   13     1         3.8757750000        -7.8416303483        33.3683744855        -6.6347091852         0.0000000000         0.0000000000         0.0000000000         0.0000000000       -25.1230329179    12 
   14     1         1.2919250000        -9.2937841166        34.5421364021        -6.6347091852         0.0000000000         0.0000000000         0.0000000000         0.0000000000       -23.4047937559    12 
   15     1         3.8757750000        -4.6468920583        32.8653336641        -6.6347091852        -0.0000000000         0.0000000000         0.0000000000         0.0000000000         0.0000000000     0 
   16     1         1.2919250000        -6.0990458265        34.0390955807        -6.6347091852        -0.0000000000         0.0000000000         0.0000000000         0.0000000000       -21.5726839600    10 
   17     1         3.8757750000        -1.4521537682        32.3622928427        -6.6347091852        -0.0000000000         0.0000000000         0.0000000000         0.0000000000         0.0000000000     0 
   18     1         1.2919250000        -2.9043075364        33.5360547593        -6.6347091852         0.0000000000        -0.0000000000         0.0000000000         0.0000000000         0.0000000000     0 
   19     1         3.8757750000       -21.7823065232        38.3987826994        -6.6347091852        -0.0000000000        -0.0000000000         0.0000000000         0.0000000000         0.0000000000     0 
   20     1         3.8757750000       -18.5875682331        37.8957418780        -6.6347091852        -0.0000000000         0.0000000000         0.0000000000         0.0000000000         0.0000000000     0 
   21     1         1.2919250000       -20.0397220013        39.0695037946        -6.6347091852         0.0000000000         0.0000000000         0.0000000000         0.0000000000         0.0000000000     0 
   22     1         3.8757750000       -15.3928299430        37.3927010566        -6.6347091852        -0.0000000000         0.0000000000         0.0000000000         0.0000000000         0.0000000000     0 
   23     1         1.2919250000       -16.8449837113        38.5664629732        -6.6347091852        -0.0000000000         0.0000000000         0.0000000000         0.0000000000         0.0000000000     0 
   24     1         3.8757750000       -12.1980916530        36.8896602352        -6.6347091852         0.0000000000         0.0000000000         0.0000000000         0.0000000000       -17.6286049696    10 
   25     1         1.2919250000       -13.6502454212        38.0634221518        -6.6347091852         0.0000000000         0.0000000000         0.0000000000         0.0000000000         0.0000000000     0 
   26     1         3.8757750000        -9.0033533629        36.3866194138        -6.6347091852         0.0000000000         0.0000000000         0.0000000000         0.0000000000       -23.4047937559    12 
   27     1         1.2919250000       -10.4555071311        37.5603813304        -6.6347091852         0.0000000000        -0.0000000000         0.0000000000         0.0000000000       -24.8361224717    12 
   28     1         3.8757750000        -5.8086150728        35.8835785924        -6.6347091852         0.0000000000         0.0000000000         0.0000000000         0.0000000000       -16.6841456079     8 
   29     1         1.2919250000        -7.2607688411        37.0573405090        -6.6347091851         0.0000000000         0.0000000000         0.0000000000         0.0000000000       -26.2726754116    11 
   30     1         3.8757750000        -2.6138767828        35.3805377710        -6.6347091852        -0.0000000000         0.0000000000         0.0000000000         0.0000000000         0.0000000000     0 
   31     1         1.2919250000        -4.0660305510        36.5542996876        -6.6347091852         0.0000000000         0.0000000000         0.0000000000         0.0000000000         0.0000000000     0 
   32     1         3.8757750000       -22.9440295377        41.4170276277        -6.6347091852        -0.0000000000         0.0000000000         0.0000000000         0.0000000000         0.0000000000     0 
   33     1         1.2919250000       -24.3961833060        42.5907895443        -6.6347091852         0.0000000000         0.0000000000         0.0000000000         0.0000000000         0.0000000000     0 
   34     1         3.8757750000       -19.7492912477        40.9139868063        -6.6347091851        -0.0000000000         0.0000000000         0.0000000000         0.0000000000         0.0000000000     0 
   35     1         1.2919250000       -21.2014450159        42.0877487229        -6.6347091852         0.0000000000        -0.0000000000         0.0000000000         0.0000000000         0.0000000000     0 
   36     1         3.8757750000       -16.5545529576        40.4109459849        -6.6347091852         0.0000000000         0.0000000000         0.0000000000         0.0000000000         0.0000000000     0 
   37     1         1.2919250000       -18.0067067258        41.5847079015        -6.6347091852         0.0000000000         0.0000000000         0.0000000000         0.0000000000         0.0000000000     0 
   38     1         3.8757750000       -13.3598146676        39.9079051635        -6.6347091852        -0.0000000000         0.0000000000         0.0000000000         0.0000000000         0.0000000000     0 
   39     1         1.2919250000       -14.8119684358        41.0816670801        -6.6347091852         0.0000000000        -0.0000000000         0.0000000000         0.0000000000         0.0000000000     0 
   40     1         3.8757750000       -10.1650763775        39.4048643422        -6.6347091852        -0.0000000000         0.0000000000         0.0000000000         0.0000000000       -25.1117471703    12 
   41     1         1.2919250000       -11.6172301457        40.5786262587        -6.6347091852         0.0000000000         0.0000000000         0.0000000000         0.0000000000       -24.3482606174    10 
   42     1         3.8757750000        -6.9703380874        38.9018235208        -6.6347091852         0.0000000000         0.0000000000         0.0000000000         0.0000000000       -30.2022228855    13 
   43     1         1.2919250000        -8.4224918556        40.0755854373        -6.6347091852         0.0000000000         0.0000000000         0.0000000000         0.0000000000       -25.2684921035    12 
   44     1         1.2919250000        -5.2277535656        39.5725446159        -6.6347091852         0.0000000000         0.0000000000         0.0000000000         0.0000000000         0.0000000000     0 
   45     1         3.8757750000       -24.1057525523        44.4352725560        -6.6347091852        -0.0000000000         0.0000000000         0.0000000000         0.0000000000         0.0000000000     0 
   46     1         1.2919250000       -25.5579063205        45.6090344726        -6.6347091852         0.0000000000         0.0000000000         0.0000000000         0.0000000000         0.0000000000     0 
   47     1         3.8757750000       -20.9110142623        43.9322317347        -6.6347091852         0.0000000000         0.0000000000         0.0000000000         0.0000000000         0.0000000000     0 
   48     1         1.2919250000       -22.3631680305        45.1059936512        -6.6347091852         0.0000000000         0.0000000000         0.0000000000         0.0000000000         0.0000000000     0 
   49     1         3.8757750000       -17.7162759722        43.4291909133        -6.6347091852         0.0000000000         0.0000000000         0.0000000000         0.0000000000         0.0000000000     0 
   50     1         1.2919250000       -19.1684297404        44.6029528298        -6.6347091852         0.0000000000         0.0000000000         0.0000000000         0.0000000000         0.0000000000     0 
   51     1         3.8757750000       -14.5215376821        42.9261500919        -6.6347091852        -0.0000000000         0.0000000000         0.0000000000         0.0000000000         0.0000000000     0 
   52     1         1.2919250000       -15.9736914503        44.0999120084        -6.6347091852         0.0000000000         0.0000000000         0.0000000000         0.0000000000         0.0000000000     0 
   53     1         3.8757750000       -11.3267993921        42.4231092705        -6.6347091852         0.0000000000         0.0000000000         0.0000000000         0.0000000000       -26.1618685743     9 
   54     1         1.2919250000       -12.7789531603        43.5968711871        -6.6347091852        -0.0000000000         0.0000000000         0.0000000000         0.0000000000         0.0000000000     0 
   55     1         3.8757750000        -8.1320611020        41.9200684491        -6.6347091852         0.0000000000         0.0000000000         0.0000000000         0.0000000000       -25.2430381742    14 
   56     1         1.2919250000        -9.5842148702        43.0938303657        -6.6347091852         0.0000000000         0.0000000000         0.0000000000         0.0000000000       -25.2685671707    12 
   57     1         3.8757750000       -25.2674755669        47.4535174844        -6.6347091852        -0.0000000000         0.0000000000         0.0000000000         0.0000000000         0.0000000000     0 
   58     1         1.2919250000       -26.7196293351        48.6272794010        -6.6347091852         0.0000000000         0.0000000000         0.0000000000         0.0000000000         0.0000000000     0 
   59     1         3.8757750000       -22.0727372768        46.9504766630        -6.6347091852        -0.0000000000         0.0000000000         0.0000000000         0.0000000000         0.0000000000     0 
   60     1         1.2919250000       -23.5248910450        48.1242385796        -6.6347091852         0.0000000000         0.0000000000         0.0000000000         0.0000000000         0.0000000000     0 
   61     1         3.8757750000       -18.8779989868        46.4474358416        -6.6347091852         0.0000000000         0.0000000000         0.0000000000         0.0000000000         0.0000000000     0 
   62     1         1.2919250000       -20.3301527550        47.6211977582        -6.6347091852         0.0000000000         0.0000000000         0.0000000000         0.0000000000         0.0000000000     0 
   63     1         3.8757750000       -15.6832606967        45.9443950202        -6.6347091852         0.0000000000         0.0000000000         0.0000000000         0.0000000000         0.0000000000     0 
   64     1         1.2919250000       -17.1354144649        47.1181569368        -6.6347091852         0.0000000000         0.0000000000         0.0000000000         0.0000000000         0.0000000000     0 
   65     1         3.8757750000       -12.4885224066        45.4413541988        -6.6347091852         0.0000000000        -0.0000000000         0.0000000000         0.0000000000       -15.8506357816     8 
   66     1         1.2919250000       -13.9406761748        46.6151161154        -6.6347091852         0.0000000000        -0.0000000000         0.0000000000         0.0000000000         0.0000000000     0 
   67     1         3.8757750000        -9.2937841166        44.9383133774        -6.6347091852         0.0000000000         0.0000000000         0.0000000000         0.0000000000       -23.4047937568    14 
   68     1         1.2919250000       -10.7459378848        46.1120752940        -6.6347091852         0.0000000000         0.0000000000         0.0000000000         0.0000000000       -26.2467727781    11 
   69     1         3.8757750000       -26.4291985815        50.4717624127        -6.6347091852         0.0000000000         0.0000000000         0.0000000000         0.0000000000         0.0000000000     0 
   70     1         1.2919250000       -27.8813523497        51.6455243293        -6.6347091852        -0.0000000000         0.0000000000         0.0000000000         0.0000000000         0.0000000000     0 
   71     1         3.8757750000       -23.2344602914        49.9687215913        -6.6347091852        -0.0000000000         0.0000000000         0.0000000000         0.0000000000         0.0000000000     0 
   72     1         1.2919250000       -24.6866140596        51.1424835079        -6.6347091852         0.0000000000         0.0000000000         0.0000000000         0.0000000000         0.0000000000     0 
   73     1         3.8757750000       -20.0397220013        49.4656807699        -6.6347091852        -0.0000000000        -0.0000000000         0.0000000000         0.0000000000         0.0000000000     0 
   74     1         1.2919250000       -21.4918757695        50.6394426865        -6.6347091852         0.0000000000         0.0000000000         0.0000000000         0.0000000000         0.0000000000     0 
   75     1         3.8757750000       -16.8449837113        48.9626399485        -6.6347091852        -0.0000000000        -0.0000000000         0.0000000000         0.0000000000         0.0000000000     0 
   76     1         1.2919250000       -18.2971374795        50.1364018651        -6.6347091852         0.0000000000         0.0000000000         0.0000000000         0.0000000000         0.0000000000     0 
   77     1         3.8757750000       -13.6502454212        48.4595991272        -6.6347091852        -0.0000000000         0.0000000000         0.0000000000         0.0000000000         0.0000000000     0 
   78     1         1.2919250000       -15.1023991894        49.6333610437        -6.6347091852         0.0000000000         0.0000000000         0.0000000000         0.0000000000         0.0000000000     0 
   79     1         3.8757750000       -10.4555071311        47.9565583058        -6.6347091852        -0.0000000000         0.0000000000         0.0000000000         0.0000000000       -24.8047642609    14 
   80     1         1.2919250000       -11.9076608993        49.1303202223        -6.6347091852         0.0000000000         0.0000000000         0.0000000000         0.0000000000       -20.4001912011    10 
   81     1         3.8757750000       -30.7856598861        53.9930481624        -6.6347091852        -0.0000000000         0.0000000000         0.0000000000         0.0000000000         0.0000000000     0 
   82     1         3.8757750000       -27.5909215960        53.4900073410        -6.6347091852         0.0000000000         0.0000000000         0.0000000000         0.0000000000         0.0000000000     0 
   83     1         1.2919250000       -29.0430753642        54.6637692576        -6.6347091852         0.0000000000         0.0000000000         0.0000000000         0.0000000000         0.0000000000     0 
   84     1         3.8757750000       -24.3961833060        52.9869665197        -6.6347091852         0.0000000000         0.0000000000         0.0000000000         0.0000000000         0.0000000000     0 
   85     1         1.2919250000       -25.8483370742        54.1607284362        -6.6347091852         0.0000000000         0.0000000000         0.0000000000         0.0000000000         0.0000000000     0 
   86     1         3.8757750000       -21.2014450159        52.4839256983        -6.6347091852         0.0000000000         0.0000000000         0.0000000000         0.0000000000         0.0000000000     0 
   87     1         1.2919250000       -22.6535987841        53.6576876148        -6.6347091852         0.0000000000         0.0000000000         0.0000000000         0.0000000000         0.0000000000     0 
   88     1         3.8757750000       -18.0067067258        51.9808848769        -6.6347091852         0.0000000000         0.0000000000         0.0000000000         0.0000000000         0.0000000000     0 
   89     1         1.2919250000       -19.4588604940        53.1546467935        -6.6347091852         0.0000000000         0.0000000000         0.0000000000         0.0000000000         0.0000000000     0 
   90     1         3.8757750000       -14.8119684358        51.4778440555        -6.6347091852         0.0000000000        -0.0000000000         0.0000000000         0.0000000000         0.0000000000     0 
   91     1         1.2919250000       -16.2641222040        52.6516059721        -6.6347091851         0.0000000000         0.0000000000         0.0000000000         0.0000000000         0.0000000000     0 
   92     1         3.8757750000       -11.6172301457        50.9748032341        -6.6347091852         0.0000000000         0.0000000000         0.0000000000         0.0000000000       -25.6857682972    10 
   93     1         1.2919250000       -13.0693839139        52.1485651507        -6.6347091852         0.0000000000         0.0000000000         0.0000000000         0.0000000000         0.0000000000     0 
   94     1         3.8757750000       -31.9473829007        57.0112930908        -6.6347091852        -0.0000000000         0.0000000000         0.0000000000         0.0000000000         0.0000000000     0 
   95     1         1.2919250000       -33.3995366689        58.1850550073        -6.6347091852         0.0000000000         0.0000000000         0.0000000000         0.0000000000         0.0000000000     0 
   96     1         3.8757750000       -28.7526446106        56.5082522694        -6.6347091852        -0.0000000000         0.0000000000         0.0000000000         0.0000000000         0.0000000000     0 
   97     1         1.2919250000       -30.2047983788        57.6820141860        -6.6347091852         0.0000000000         0.0000000000         0.0000000000         0.0000000000         0.0000000000     0 
   98     1         3.8757750000       -25.5579063205        56.0052114480        -6.6347091852        -0.0000000000         0.0000000000         0.0000000000         0.0000000000         0.0000000000     0 
   99     1         1.2919250000       -27.0100600887        57.1789733646        -6.6347091852         0.0000000000        -0.0000000000         0.0000000000         0.0000000000         0.0000000000     0 
  100     1         3.8757750000       -22.3631680305        55.5021706266        -6.6347091852        -0.0000000000         0.0000000000         0.0000000000         0.0000000000         0.0000000000     0 
  101     1         1.2919250000       -23.8153217987        56.6759325432        -6.6347091852         0.0000000000         0.0000000000         0.0000000000         0.0000000000         0.0000000000     0 
  102     1         3.8757750000       -19.1684297404        54.9991298052        -6.6347091852         0.0000000000         0.0000000000         0.0000000000         0.0000000000         0.0000000000     0 
  103     1         1.2919250000       -20.6205835086        56.1728917218        -6.6347091852         0.0000000000         0.0000000000         0.0000000000         0.0000000000         0.0000000000     0 
  104     1         3.8757750000       -15.9736914503        54.4960889838        -6.6347091852         0.0000000000         0.0000000000         0.0000000000         0.0000000000         0.0000000000     0 
  105     1         1.2919250000       -17.4258452185        55.6698509004        -6.6347091852        -0.0000000000         0.0000000000         0.0000000000         0.0000000000         0.0000000000     0 
  106     1         1.2919250000       -14.2311069285        55.1668100790        -6.6347091852         0.0000000000         0.0000000000         0.0000000000         0.0000000000         0.0000000000     0 
  107     1         3.8757750000       -33.1091059152        60.0295380191        -6.6347091852         0.0000000000         0.0000000000         0.0000000000         0.0000000000         0.0000000000     0 
  108     1         1.2919250000       -34.5612596834        61.2032999357        -6.6347091852         0.0000000000         0.0000000000         0.0000000000         0.0000000000         0.0000000000     0 
  109     1         3.8757750000       -29.9143676252        59.5264971977        -6.6347091852         0.0000000000         0.0000000000         0.0000000000         0.0000000000         0.0000000000     0 
  110     1         1.2919250000       -31.3665213934        60.7002591143        -6.6347091851         0.0000000000         0.0000000000         0.0000000000         0.0000000000         0.0000000000     0 
  111     1         3.8757750000       -26.7196293351        59.0234563763        -6.6347091852         0.0000000000         0.0000000000         0.0000000000         0.0000000000         0.0000000000     0 
  112     1         1.2919250000       -28.1717831033        60.1972182929        -6.6347091852         0.0000000000         0.0000000000         0.0000000000         0.0000000000         0.0000000000     0 
  113     1         3.8757750000       -23.5248910450        58.5204155549        -6.6347091852        -0.0000000000         0.0000000000         0.0000000000         0.0000000000         0.0000000000     0 
  114     1         1.2919250000       -24.9770448132        59.6941774715        -6.6347091852         0.0000000000         0.0000000000         0.0000000000         0.0000000000         0.0000000000     0 
  115     1         3.8757750000       -20.3301527550        58.0173747335        -6.6347091852         0.0000000000         0.0000000000         0.0000000000         0.0000000000         0.0000000000     0 
  116     1         1.2919250000       -21.7823065232        59.1911366501        -6.6347091852        -0.0000000000         0.0000000000         0.0000000000         0.0000000000         0.0000000000     0 
  117     1         3.8757750000       -17.1354144649        57.5143339122        -6.6347091852         0.0000000000         0.0000000000         0.0000000000         0.0000000000         0.0000000000     0 
  118     1         1.2919250000       -18.5875682331        58.6880958287        -6.6347091852         0.0000000000         0.0000000000         0.0000000000         0.0000000000         0.0000000000     0 
  119     1         3.8757750000       -27.8813523497        62.0417013047        -6.6347091851         0.0000000000         0.0000000000         0.0000000000         0.0000000000         0.0000000000     0 
  120     1         3.8757750000       -24.6866140596        61.5386604833        -6.6347091851        -0.0000000000         0.0000000000         0.0000000000         0.0000000000         0.0000000000     0 
  121     1         3.8757750000       -21.4918757695        61.0356196619        -6.6347091852        -0.0000000000         0.0000000000         0.0000000000         0.0000000000         0.0000000000     0 
  122     1         1.2919250000       -22.9440295377        62.2093815785        -6.6347091851        -0.0000000000         0.0000000000         0.0000000000         0.0000000000         0.0000000000     0 
  123     1         3.8757750000       -18.2971374795        60.5325788405        -6.6347091852         0.0000000000         0.0000000000         0.0000000000         0.0000000000         0.0000000000     0 
  124     1         1.2919250000       -19.7492912477        61.7063407571        -6.6347091851         0.0000000000         0.0000000000         0.0000000000         0.0000000000         0.0000000000     0 
  125     1         3.8757750000         1.7425845219         0.6707210952        -6.6347091851        -0.0000000000         0.0000000000         0.0000000000         0.0000000000         0.0000000000     0 
  126     1         1.2919250000         0.2904307536         1.8444830118        -6.6347091852        -0.0000000000        -0.0000000000         0.0000000000         0.0000000000         0.0000000000     0 
  127     1         3.8757750000         4.9373228119         0.1676802738        -6.6347091851         0.0000000000         0.0000000000         0.0000000000         0.0000000000         0.0000000000     0 
  128     1         1.2919250000         3.4851690437         1.3414421904        -6.6347091852        -0.0000000000         0.0000000000         0.0000000000         0.0000000000         0.0000000000     0 
  129     1         1.2919250000         6.6799073338         0.8384013690        -6.6347091851         0.0000000000         0.0000000000         0.0000000000         0.0000000000         0.0000000000     0 
  130     1         1.2919250000         9.8746456238         0.3353605476        -6.6347091851         0.0000000000         0.0000000000         0.0000000000         0.0000000000         0.0000000000     0 
  131     1         3.8757750000         0.5808615073         3.6889660235        -6.6347091852        -0.0000000000         0.0000000000         0.0000000000         0.0000000000         0.0000000000     0 
  132     1         1.2919250000        -0.8712922609         4.8627279401        -6.6347091852        -0.0000000000         0.0000000000         0.0000000000         0.0000000000         0.0000000000     0 
  133     1         3.8757750000         3.7755997974         3.1859252021        -6.6347091852         0.0000000000         0.0000000000         0.0000000000         0.0000000000         0.0000000000     0 
  134     1         1.2919250000         2.3234460291         4.3596871187        -6.6347091852         0.0000000000        -0.0000000000         0.0000000000         0.0000000000         0.0000000000     0 
  135     1         3.8757750000         6.9703380874         2.6828843807        -6.6347091852         0.0000000000        -0.0000000000         0.0000000000         0.0000000000         0.0000000000     0 
  136     1         1.2919250000         5.5181843192         3.8566462973        -6.6347091852         0.0000000000         0.0000000000         0.0000000000         0.0000000000         0.0000000000     0 
  137     1         3.8757750000        10.1650763775         2.1798435594        -6.6347091852         0.0000000000         0.0000000000         0.0000000000         0.0000000000         0.0000000000     0 
  138     1         1.2919250000         8.7129226093         3.3536054759        -6.6347091852         0.0000000000         0.0000000000         0.0000000000         0.0000000000         0.0000000000     0 
  139     1         3.8757750000        13.3598146676         1.6768027380        -6.6347091851         0.0000000000         0.0000000000         0.0000000000         0.0000000000         0.0000000000     0 
  140     1         1.2919250000        11.9076608993         2.8505646545        -6.6347091852         0.0000000000         0.0000000000         0.0000000000         0.0000000000         0.0000000000     0 
  141     1         3.8757750000        16.5545529576         1.1737619166        -6.6347091852        -0.0000000000         0.0000000000         0.0000000000         0.0000000000         0.0000000000     0 
  142     1         1.2919250000        15.1023991894         2.3475238331        -6.6347091852         0.0000000000         0.0000000000         0.0000000000         0.0000000000         0.0000000000     0 