Header

104 atoms
1 atom types

0.0    5.167700000 xlo xhi
0.0   11.660713380 ylo yhi
0.0   40.393896053 zlo zhi

0.000000000000001        0.000000000000006        23.321426759956189       xy xz yz

Atoms

       1    1       3.875775000000002       13.454669284590111       20.714818488841292
       2    1       1.291925000000003       15.248625189202123       21.232688951062325
       3    1       1.291925000000003       18.388048022273150       20.455883257730775
       4    1       3.875775000000003       15.697114165355128       23.045235568835938
       5    1       1.291925000000003       14.351647236896117       24.339911724388518
       6    1       3.875775000000003       18.836536998426151       22.268429875504388
       7    1       1.291925000000003       17.491070069967144       23.563106031056968
       8    1       3.875775000000003       21.975959831497175       21.491624182172842
       9    1       1.291925000000003       20.630492903038167       22.786300337725422
      10    1       1.291925000000004       23.769915736109191       22.009494644393872
      11    1       3.875775000000003       17.939559046120145       25.375652648830581
      12    1       1.291925000000003       16.594092117661134       26.670328804383161
      13    1       3.875775000000003       21.078981879191169       24.598846955499035
      14    1       1.291925000000004       19.733514950732157       25.893523111051614
      15    1       3.875775000000003       24.218404712262192       23.822041262167485
      16    1       1.291925000000004       22.872937783803181       25.116717417720064
      17    1       3.875775000000003       17.042581093814139       28.482875422156781
      18    1       3.875775000000003       20.182003926885162       27.706069728825231
      19    1       1.291925000000004       18.836536998426155       29.000745884377810
      20    1       3.875775000000004       23.321426759956189       26.929264035493681
      21    1       1.291925000000004       21.975959831497175       28.223940191046264
      22    1       3.875775000000004       26.460849593027216       26.152458342162134
      23    1       1.291925000000004       25.115382664568202       27.447134497714714
      24    1       3.875775000000004       19.285025974579156       30.813292502151420
      25    1       3.875775000000004       22.424448807650180       30.036486808819873
      26    1       1.291925000000004       21.078981879191169       31.331162964372457
      27    1       3.875775000000004       25.563871640721203       29.259681115488323
      28    1       1.291925000000004       24.218404712262195       30.554357271040907
      29    1       1.291925000000005       27.357827545333215       29.777551577709360
      30    1       3.875775000000004       21.527470855344177       33.143709582146059
      31    1       1.291925000000004       20.182003926885159       34.438385737698646
      32    1       3.875775000000004       24.666893688415200       32.366903888814520
      33    1       1.291925000000005       23.321426759956182       33.661580044367099
      34    1       3.875775000000004       27.806316521486224       31.590098195482973
      35    1       1.291925000000005       26.460849593027209       32.884774351035553
      36    1       1.291925000000005       29.600272426098233       32.107968657703999
      37    1       3.875775000000004       23.769915736109198       35.474126662140712
      38    1       1.291925000000005       22.424448807650187       36.768802817693292
      39    1       3.875775000000004       26.909338569180221       34.697320968809159
      40    1       1.291925000000005       25.563871640721203       35.991997124361738
      41    1       3.875775000000005       30.048761402251241       33.920515275477612
      42    1       1.291925000000005       28.703294473792226       35.215191431030192
      43    1       3.875775000000004       22.872937783803192       38.581349435466912
      44    1       3.875775000000005       26.012360616874215       37.804543742135365
      45    1       1.291925000000005       24.666893688415193       39.099219897687938
      46    1       3.875775000000005       29.151783449945235       37.027738048803812
      47    1       1.291925000000005       27.806316521486217       38.322414204356392
      48    1       3.875775000000005       32.291206283016251       36.250932355472273
      49    1       1.291925000000006       30.945739354557247       37.545608511024845
      50    1       3.875775000000005       28.254805497639225       40.134960822130012
      51    1       3.875775000000005       31.394228330710249       39.358155128798458
      52    1       1.291925000000006       33.188184235322268       39.876025591019477
      53    1       3.875774999999999        1.793955904612016        0.517870462221032
      54    1       1.291925000000000        3.587911809224025        1.035740924442066
      55    1       1.291925000000000        6.727334642295052        0.258935231110514
      56    1       3.875775000000000        4.036400785377033        2.848287542215676
      57    1       1.291925000000000        2.690933856918019        4.142963697768258
      58    1       3.875775000000000        7.175823618448055        2.071481848884128
      59    1       1.291925000000000        5.830356689989046        3.366158004436713
      60    1       3.875775000000000       10.315246451519078        1.294676155552580
      61    1       1.291925000000001        8.969779523060069        2.589352311105161
      62    1       1.291925000000001       12.109202356131092        1.812546617773612
      63    1       3.875775000000000        6.278845666142050        5.178704622210320
      64    1       1.291925000000001        4.933378737683040        6.473380777762903
      65    1       3.875775000000000        9.418268499213074        4.401898928878773
      66    1       1.291925000000001        8.072801570754065        5.696575084431355
      67    1       3.875775000000000       12.557691332284097        3.625093235547225
      68    1       1.291925000000001       11.212224403825088        4.919769391099807
      69    1       3.875775000000000        5.381867713836042        8.285927395536515
      70    1       3.875775000000000        8.521290546907068        7.509121702204967
      71    1       1.291925000000001        7.175823618448058        8.803797857757550
      72    1       3.875775000000001       11.660713379978093        6.732316008873418
      73    1       1.291925000000001       10.315246451519080        8.026992164426002
      74    1       3.875775000000001       14.800136213049118        5.955510315541868
      75    1       1.291925000000001       13.454669284590105        7.250186471094453
      76    1       3.875775000000001        7.624312594601060       10.616344475531163
      77    1       3.875775000000001       10.763735427672085        9.839538782199615
      78    1       1.291925000000001        9.418268499213074       11.134214937752192
      79    1       3.875775000000001       13.903158260743108        9.062733088868065
      80    1       1.291925000000002       12.557691332284099       10.357409244420646
      81    1       1.291925000000002       15.697114165355121        9.580603551089098
      82    1       3.875775000000001        9.866757475366079       12.946761555525807
      83    1       1.291925000000002        8.521290546907068       14.241437711078389
      84    1       3.875775000000001       13.006180308437106       12.169955862194261
      85    1       1.291925000000002       11.660713379978095       13.464632017746839
      86    1       3.875775000000001       16.145603141508129       11.393150168862707
      87    1       1.291925000000002       14.800136213049118       12.687826324415290
      88    1       1.291925000000002       17.939559046120142       11.911020631083742
      89    1       3.875775000000001       12.109202356131098       15.277178635520453
      90    1       1.291925000000002       10.763735427672087       16.571854791073029
      91    1       3.875775000000002       15.248625189202119       14.500372942188905
      92    1       1.291925000000002       13.903158260743112       15.795049097741487
      93    1       3.875775000000002       18.388048022273143       13.723567248857357
      94    1       1.291925000000002       17.042581093814135       15.018243404409937
      95    1       3.875775000000002       11.212224403825092       18.384401408846642
      96    1       3.875775000000002       14.351647236896117       17.607595715515096
      97    1       1.291925000000002       13.006180308437106       18.902271871067679
      98    1       3.875775000000002       17.491070069967137       16.830790022183546
      99    1       1.291925000000003       16.145603141508129       18.125466177736129
     100    1       3.875775000000002       20.630492903038160       16.053984328852003
     101    1       1.291925000000003       19.285025974579153       17.348660484404583
     102    1       3.875775000000002       16.594092117661134       19.938012795509742
     103    1       3.875775000000003       19.733514950732157       19.161207102178196
     104    1       1.291925000000003       21.527470855344173       19.679077564399226
