ITEM: TIMESTEP
0
ITEM: NUMBER OF ATOMS
104
ITEM: BOX BOUNDS xy xz yz pp pp pp
0.0000000000000000e+000 5.1677000000000071e+000 1.0000000000000001e-015
0.0000000000000000e+000 3.4982140139956186e+001 5.9999999999999997e-015
0.0000000000000000e+000 4.0393896052999999e+001 2.3321426759956189e+001
ITEM: ATOMS id type x y z c_peatom c_datom[1] c_datom[2] c_datom[3] c_datom[4] c_voratom[1] c_voratom[2] 
    1     1         3.8757750000        13.4546692846        20.7148184888        -6.6347091852        -0.0000000000         0.0000000000         0.0000000000         0.0000000000        23.4047937560    14 
    2     1         1.2919250000        15.2486251892        21.2326889511        -6.6347091852        -0.0000000000         0.0000000000         0.0000000000         0.0000000000        23.4047937560    12 
    3     1         1.2919250000        18.3880480223        20.4558832577        -6.6347091852         0.0000000000         0.0000000000         0.0000000000         0.0000000000        23.4047937559    12 
    4     1         3.8757750000        15.6971141654        23.0452355688        -6.6347091852         0.0000000000         0.0000000000         0.0000000000         0.0000000000        23.4047937560    12 
    5     1         1.2919250000        14.3516472369        24.3399117244        -6.6347091852         0.0000000000         0.0000000000         0.0000000000         0.0000000000        23.4047937560    14 
    6     1         3.8757750000        18.8365369984        22.2684298755        -6.6347091852        -0.0000000000         0.0000000000         0.0000000000         0.0000000000        23.4047937559    12 
    7     1         1.2919250000        17.4910700700        23.5631060311        -6.6347091852         0.0000000000         0.0000000000         0.0000000000         0.0000000000        23.4047937559    12 
    8     1         3.8757750000        21.9759598315        21.4916241822        -6.6347091852        -0.0000000000         0.0000000000         0.0000000000         0.0000000000        23.4047937560    12 
    9     1         1.2919250000        20.6304929030        22.7863003377        -6.6347091852         0.0000000000         0.0000000000         0.0000000000         0.0000000000        23.4047937559    12 
   10     1         1.2919250000        23.7699157361        22.0094946444        -6.6347091852         0.0000000000         0.0000000000         0.0000000000         0.0000000000        23.4047937560    14 
   11     1         3.8757750000        17.9395590461        25.3756526488        -6.6347091852        -0.0000000000         0.0000000000         0.0000000000         0.0000000000        23.4047937560    12 
   12     1         1.2919250000        16.5940921177        26.6703288044        -6.6347091852         0.0000000000         0.0000000000         0.0000000000         0.0000000000        23.4047937560    12 
   13     1         3.8757750000        21.0789818792        24.5988469555        -6.6347091852        -0.0000000000         0.0000000000         0.0000000000         0.0000000000        23.4047937559    12 
   14     1         1.2919250000        19.7335149507        25.8935231111        -6.6347091852         0.0000000000         0.0000000000         0.0000000000         0.0000000000        23.4047937559    12 
   15     1         3.8757750000        24.2184047123        23.8220412622        -6.6347091852        -0.0000000000         0.0000000000         0.0000000000         0.0000000000        23.4047937560    12 
   16     1         1.2919250000        22.8729377838        25.1167174177        -6.6347091852         0.0000000000         0.0000000000         0.0000000000         0.0000000000        23.4047937560    12 
   17     1         3.8757750000        17.0425810938        28.4828754222        -6.6347091852        -0.0000000000         0.0000000000         0.0000000000         0.0000000000        23.4047937560    14 
   18     1         3.8757750000        20.1820039269        27.7060697288        -6.6347091852        -0.0000000000         0.0000000000         0.0000000000         0.0000000000        23.4047937559    12 
   19     1         1.2919250000        18.8365369984        29.0007458844        -6.6347091852        -0.0000000000         0.0000000000         0.0000000000         0.0000000000        23.4047937560    12 
   20     1         3.8757750000        23.3214267600        26.9292640355        -6.6347091852         0.0000000000         0.0000000000         0.0000000000         0.0000000000        23.4047937559    12 
   21     1         1.2919250000        21.9759598315        28.2239401910        -6.6347091852         0.0000000000         0.0000000000         0.0000000000         0.0000000000        23.4047937559    12 
   22     1         3.8757750000        26.4608495930        26.1524583422        -6.6347091852        -0.0000000000         0.0000000000         0.0000000000         0.0000000000        23.4047937560    14 
   23     1         1.2919250000        25.1153826646        27.4471344977        -6.6347091852        -0.0000000000         0.0000000000         0.0000000000         0.0000000000        23.4047937560    12 
   24     1         3.8757750000        19.2850259746        30.8132925022        -6.6347091852         0.0000000000         0.0000000000         0.0000000000         0.0000000000        23.4047937560    14 
   25     1         3.8757750000        22.4244488077        30.0364868088        -6.6347091852         0.0000000000         0.0000000000         0.0000000000         0.0000000000        23.4047937559    12 
   26     1         1.2919250000        21.0789818792        31.3311629644        -6.6347091852         0.0000000000         0.0000000000         0.0000000000         0.0000000000        23.4047937560    12 
   27     1         3.8757750000        25.5638716407        29.2596811155        -6.6347091852         0.0000000000         0.0000000000         0.0000000000         0.0000000000        23.4047937560    12 
   28     1         1.2919250000        24.2184047123        30.5543572710        -6.6347091852         0.0000000000         0.0000000000         0.0000000000         0.0000000000        23.4047937559    12 
   29     1         1.2919250000        27.3578275453        29.7775515777        -6.6347091852         0.0000000000         0.0000000000         0.0000000000         0.0000000000        23.4047937560    14 
   30     1         3.8757750000        21.5274708553        33.1437095821        -6.6347091852        -0.0000000000         0.0000000000         0.0000000000         0.0000000000        23.4047937560    12 
   31     1         1.2919250000        20.1820039269        34.4383857377        -6.6347091852         0.0000000000         0.0000000000         0.0000000000         0.0000000000        23.4047937560    14 
   32     1         3.8757750000        24.6668936884        32.3669038888        -6.6347091852        -0.0000000000         0.0000000000         0.0000000000         0.0000000000        23.4047937559    12 
   33     1         1.2919250000        23.3214267600        33.6615800444        -6.6347091852         0.0000000000         0.0000000000         0.0000000000         0.0000000000        23.4047937559    12 
   34     1         3.8757750000        27.8063165215        31.5900981955        -6.6347091852         0.0000000000         0.0000000000         0.0000000000         0.0000000000        23.4047937560    12 
   35     1         1.2919250000        26.4608495930        32.8847743510        -6.6347091852         0.0000000000         0.0000000000         0.0000000000         0.0000000000        23.4047937559    12 
   36     1         1.2919250000        29.6002724261        32.1079686577        -6.6347091852        -0.0000000000         0.0000000000         0.0000000000         0.0000000000        23.4047937560    14 
   37     1         3.8757750000        23.7699157361        35.4741266621        -6.6347091852         0.0000000000         0.0000000000         0.0000000000         0.0000000000        23.4047937560    12 
   38     1         1.2919250000        22.4244488077        36.7688028177        -6.6347091852         0.0000000000         0.0000000000         0.0000000000         0.0000000000        23.4047937560    12 
   39     1         3.8757750000        26.9093385692        34.6973209688        -6.6347091852         0.0000000000         0.0000000000         0.0000000000         0.0000000000        23.4047937559    12 
   40     1         1.2919250000        25.5638716407        35.9919971244        -6.6347091852         0.0000000000         0.0000000000         0.0000000000         0.0000000000        23.4047937559    12 
   41     1         3.8757750000        30.0487614023        33.9205152755        -6.6347091852        -0.0000000000         0.0000000000         0.0000000000         0.0000000000        23.4047937560    12 
   42     1         1.2919250000        28.7032944738        35.2151914310        -6.6347091852         0.0000000000         0.0000000000         0.0000000000         0.0000000000        23.4047937560    12 
   43     1         3.8757750000        22.8729377838        38.5813494355        -6.6347091852         0.0000000000         0.0000000000         0.0000000000         0.0000000000        23.4047937553    14 
   44     1         3.8757750000        26.0123606169        37.8045437421        -6.6347091852        -0.0000000000         0.0000000000         0.0000000000         0.0000000000        23.4047937555    14 
   45     1         1.2919250000        24.6668936884        39.0992198977        -6.6347091851         0.0000000000         0.0000000000         0.0000000000         0.0000000000        23.4047937547    12 
   46     1         3.8757750000        29.1517834499        37.0277380488        -6.6347091852         0.0000000000         0.0000000000         0.0000000000         0.0000000000        23.4047937559    14 
   47     1         1.2919250000        27.8063165215        38.3224142044        -6.6347091852         0.0000000000         0.0000000000         0.0000000000         0.0000000000        23.4047937552    12 
   48     1         3.8757750000        32.2912062830        36.2509323555        -6.6347091852        -0.0000000000         0.0000000000         0.0000000000         0.0000000000        23.4047937560    14 
   49     1         1.2919250000        30.9457393546        37.5456085110        -6.6347091852         0.0000000000         0.0000000000         0.0000000000         0.0000000000        23.4047937556    12 
   50     1         3.8757750000        28.2548054976        40.1349608221        -6.6347091851        -0.0000000000         0.0000000000         0.0000000000         0.0000000000        23.4047937546    14 
   51     1         3.8757750000        31.3942283307        39.3581551288        -6.6347091851        -0.0000000000         0.0000000000         0.0000000000         0.0000000000        23.4047937549    14 
   52     1         1.2919250000        33.1881842353        39.8760255910        -6.6347091851         0.0000000000         0.0000000000         0.0000000000         0.0000000000        23.4047937547    14 
   53     1         3.8757750000         1.7939559046         0.5178704622        -6.6347091851        -0.0000000000         0.0000000000         0.0000000000         0.0000000000        23.4047937547    14 
   54     1         1.2919250000         3.5879118092         1.0357409244        -6.6347091851         0.0000000000         0.0000000000         0.0000000000         0.0000000000        23.4047937549    14 
   55     1         1.2919250000         6.7273346423         0.2589352311        -6.6347091851         0.0000000000         0.0000000000         0.0000000000         0.0000000000        23.4047937546    14 
   56     1         3.8757750000         4.0364007854         2.8482875422        -6.6347091852         0.0000000000         0.0000000000         0.0000000000         0.0000000000        23.4047937556    12 
   57     1         1.2919250000         2.6909338569         4.1429636978        -6.6347091852        -0.0000000000         0.0000000000         0.0000000000         0.0000000000        23.4047937560    14 
   58     1         3.8757750000         7.1758236184         2.0714818489        -6.6347091852         0.0000000000         0.0000000000         0.0000000000         0.0000000000        23.4047937552    12 
   59     1         1.2919250000         5.8303566900         3.3661580044        -6.6347091852         0.0000000000         0.0000000000         0.0000000000         0.0000000000        23.4047937559    14 
   60     1         3.8757750000        10.3152464515         1.2946761556        -6.6347091851        -0.0000000000         0.0000000000         0.0000000000         0.0000000000        23.4047937547    12 
   61     1         1.2919250000         8.9697795231         2.5893523111        -6.6347091852         0.0000000000         0.0000000000         0.0000000000         0.0000000000        23.4047937555    14 
   62     1         1.2919250000        12.1092023561         1.8125466178        -6.6347091852         0.0000000000         0.0000000000         0.0000000000         0.0000000000        23.4047937553    14 
   63     1         3.8757750000         6.2788456661         5.1787046222        -6.6347091852         0.0000000000         0.0000000000         0.0000000000         0.0000000000        23.4047937560    12 
   64     1         1.2919250000         4.9333787377         6.4733807778        -6.6347091852         0.0000000000         0.0000000000         0.0000000000         0.0000000000        23.4047937560    12 
   65     1         3.8757750000         9.4182684992         4.4018989289        -6.6347091852        -0.0000000000         0.0000000000         0.0000000000         0.0000000000        23.4047937559    12 
   66     1         1.2919250000         8.0728015708         5.6965750844        -6.6347091852         0.0000000000         0.0000000000         0.0000000000         0.0000000000        23.4047937559    12 
   67     1         3.8757750000        12.5576913323         3.6250932355        -6.6347091852        -0.0000000000         0.0000000000         0.0000000000         0.0000000000        23.4047937560    12 
   68     1         1.2919250000        11.2122244038         4.9197693911        -6.6347091852         0.0000000000         0.0000000000         0.0000000000         0.0000000000        23.4047937560    12 
   69     1         3.8757750000         5.3818677138         8.2859273955        -6.6347091852         0.0000000000         0.0000000000         0.0000000000         0.0000000000        23.4047937560    14 
   70     1         3.8757750000         8.5212905469         7.5091217022        -6.6347091852         0.0000000000         0.0000000000         0.0000000000         0.0000000000        23.4047937559    12 
   71     1         1.2919250000         7.1758236184         8.8037978578        -6.6347091852         0.0000000000         0.0000000000         0.0000000000         0.0000000000        23.4047937560    12 
   72     1         3.8757750000        11.6607133800         6.7323160089        -6.6347091852        -0.0000000000         0.0000000000         0.0000000000         0.0000000000        23.4047937559    12 
   73     1         1.2919250000        10.3152464515         8.0269921644        -6.6347091852        -0.0000000000         0.0000000000         0.0000000000         0.0000000000        23.4047937559    12 
   74     1         3.8757750000        14.8001362130         5.9555103155        -6.6347091852        -0.0000000000         0.0000000000         0.0000000000         0.0000000000        23.4047937560    14 
   75     1         1.2919250000        13.4546692846         7.2501864711        -6.6347091852         0.0000000000         0.0000000000         0.0000000000         0.0000000000        23.4047937560    12 
   76     1         3.8757750000         7.6243125946        10.6163444755        -6.6347091852        -0.0000000000         0.0000000000         0.0000000000         0.0000000000        23.4047937560    14 
   77     1         3.8757750000        10.7637354277         9.8395387822        -6.6347091852        -0.0000000000         0.0000000000         0.0000000000         0.0000000000        23.4047937559    12 
   78     1         1.2919250000         9.4182684992        11.1342149378        -6.6347091852        -0.0000000000         0.0000000000         0.0000000000         0.0000000000        23.4047937560    12 
   79     1         3.8757750000        13.9031582607         9.0627330889        -6.6347091852        -0.0000000000         0.0000000000         0.0000000000         0.0000000000        23.4047937560    12 
   80     1         1.2919250000        12.5576913323        10.3574092444        -6.6347091852         0.0000000000         0.0000000000         0.0000000000         0.0000000000        23.4047937559    12 
   81     1         1.2919250000        15.6971141654         9.5806035511        -6.6347091852        -0.0000000000         0.0000000000         0.0000000000         0.0000000000        23.4047937560    14 
   82     1         3.8757750000         9.8667574754        12.9467615555        -6.6347091852        -0.0000000000         0.0000000000         0.0000000000         0.0000000000        23.4047937560    12 
   83     1         1.2919250000         8.5212905469        14.2414377111        -6.6347091852         0.0000000000         0.0000000000         0.0000000000         0.0000000000        23.4047937560    14 
   84     1         3.8757750000        13.0061803084        12.1699558622        -6.6347091852        -0.0000000000         0.0000000000         0.0000000000         0.0000000000        23.4047937559    12 
   85     1         1.2919250000        11.6607133800        13.4646320177        -6.6347091852         0.0000000000         0.0000000000         0.0000000000         0.0000000000        23.4047937559    12 
   86     1         3.8757750000        16.1456031415        11.3931501689        -6.6347091852         0.0000000000         0.0000000000         0.0000000000         0.0000000000        23.4047937560    12 
   87     1         1.2919250000        14.8001362130        12.6878263244        -6.6347091852         0.0000000000         0.0000000000         0.0000000000         0.0000000000        23.4047937559    12 
   88     1         1.2919250000        17.9395590461        11.9110206311        -6.6347091852         0.0000000000         0.0000000000         0.0000000000         0.0000000000        23.4047937560    14 
   89     1         3.8757750000        12.1092023561        15.2771786355        -6.6347091852        -0.0000000000         0.0000000000         0.0000000000         0.0000000000        23.4047937560    12 
   90     1         1.2919250000        10.7637354277        16.5718547911        -6.6347091852         0.0000000000         0.0000000000         0.0000000000         0.0000000000        23.4047937560    12 
   91     1         3.8757750000        15.2486251892        14.5003729422        -6.6347091852        -0.0000000000        -0.0000000000         0.0000000000         0.0000000000        23.4047937559    12 
   92     1         1.2919250000        13.9031582607        15.7950490977        -6.6347091852         0.0000000000         0.0000000000         0.0000000000         0.0000000000        23.4047937559    12 
   93     1         3.8757750000        18.3880480223        13.7235672489        -6.6347091852         0.0000000000         0.0000000000         0.0000000000         0.0000000000        23.4047937560    12 
   94     1         1.2919250000        17.0425810938        15.0182434044        -6.6347091852         0.0000000000         0.0000000000         0.0000000000         0.0000000000        23.4047937560    12 
   95     1         3.8757750000        11.2122244038        18.3844014088        -6.6347091852        -0.0000000000         0.0000000000         0.0000000000         0.0000000000        23.4047937560    14 
   96     1         3.8757750000        14.3516472369        17.6075957155        -6.6347091852         0.0000000000         0.0000000000         0.0000000000         0.0000000000        23.4047937559    12 
   97     1         1.2919250000        13.0061803084        18.9022718711        -6.6347091852         0.0000000000         0.0000000000         0.0000000000         0.0000000000        23.4047937560    12 
   98     1         3.8757750000        17.4910700700        16.8307900222        -6.6347091852         0.0000000000         0.0000000000         0.0000000000         0.0000000000        23.4047937559    12 
   99     1         1.2919250000        16.1456031415        18.1254661777        -6.6347091852        -0.0000000000         0.0000000000         0.0000000000         0.0000000000        23.4047937559    12 
  100     1         3.8757750000        20.6304929030        16.0539843289        -6.6347091852        -0.0000000000         0.0000000000         0.0000000000         0.0000000000        23.4047937560    14 
  101     1         1.2919250000        19.2850259746        17.3486604844        -6.6347091852         0.0000000000         0.0000000000         0.0000000000         0.0000000000        23.4047937560    12 
  102     1         3.8757750000        16.5940921177        19.9380127955        -6.6347091852         0.0000000000         0.0000000000         0.0000000000         0.0000000000        23.4047937559    12 
  103     1         3.8757750000        19.7335149507        19.1612071022        -6.6347091852         0.0000000000         0.0000000000         0.0000000000         0.0000000000        23.4047937560    12 
  104     1         1.2919250000        21.5274708553        19.6790775644        -6.6347091852         0.0000000000         0.0000000000         0.0000000000         0.0000000000        23.4047937560    14 
