Header

84 atoms
1 atom types

0.0    5.167700000 xlo xhi
0.0    8.556624315 ylo yhi
0.0   44.461524165 zlo zhi

0.000000000000001        0.000000000000006        25.669872945341996       xy xz yz

Atoms

       1    1       3.875775000000002       14.668498825909712       22.583631321991135
       2    1       1.291925000000003       16.502061179148427       22.936500561397242
       3    1       3.875775000000003       17.113248630227996       24.700846758427801
       4    1       1.291925000000003       15.890873728068854       26.112323716052245
       5    1       3.875775000000003       20.169185885625851       23.642239040209468
       6    1       1.291925000000003       18.946810983466712       25.053715997833912
       7    1       1.291925000000004       22.002748238864562       23.995108279615579
       8    1       3.875775000000003       16.502061179148427       27.876669913082807
       9    1       3.875775000000003       19.557998434546281       26.818062194864471
      10    1       1.291925000000004       18.335623532387139       28.229539152488918
      11    1       3.875775000000003       22.613935689944135       25.759454476646138
      12    1       1.291925000000004       21.391560787784993       27.170931434270578
      13    1       3.875775000000003       18.946810983466708       29.993885349519470
      14    1       3.875775000000004       22.002748238864562       28.935277631301137
      15    1       1.291925000000004       20.780373336705424       30.346754588925585
      16    1       1.291925000000004       23.836310592103278       29.288146870707251
      17    1       3.875775000000004       21.391560787784993       32.111100785956140
      18    1       1.291925000000004       20.169185885625854       33.522577743580591
      19    1       3.875775000000004       24.447498043182847       31.052493067737807
      20    1       1.291925000000004       23.225123141023708       32.463970025362251
      21    1       1.291925000000005       26.281060396421562       31.405362307143918
      22    1       3.875775000000004       20.780373336705420       35.286923940611146
      23    1       3.875775000000004       23.836310592103281       34.228316222392813
      24    1       1.291925000000005       22.613935689944135       35.639793180017257
      25    1       3.875775000000004       26.892247847501132       33.169708504174480
      26    1       1.291925000000005       25.669872945341993       34.581185461798924
      27    1       3.875775000000004       23.225123141023712       37.404139377047812
      28    1       3.875775000000004       26.281060396421566       36.345531658829479
      29    1       1.291925000000005       25.058685494262424       37.757008616453930
      30    1       1.291925000000005       28.114622749660274       36.698400898235590
      31    1       3.875775000000005       25.669872945341993       39.521354813484479
      32    1       1.291925000000005       24.447498043182854       40.932831771108930
      33    1       3.875775000000005       28.725810200739851       38.462747095266153
      34    1       1.291925000000005       27.503435298580705       39.874224052890590
      35    1       1.291925000000006       30.559372553978555       38.815616334672256
      36    1       3.875775000000005       25.058685494262427       42.697177968139492
      37    1       3.875775000000005       28.114622749660281       41.638570249921159
      38    1       1.291925000000006       26.892247847501132       43.050047207545589
      39    1       3.875775000000005       31.170560005058135       40.579962531702826
      40    1       1.291925000000006       29.948185102898986       41.991439489327256
      41    1       3.875775000000005       30.559372553978566       43.755785686357825
      42    1       1.291925000000006       32.392934907217288       44.108654925763936
      43    1       3.875774999999999        1.833562353238710        0.352869239406109
      44    1       1.291925000000000        3.667124706477424        0.705738478812221
      45    1       3.875775000000000        4.278312157556996        2.470084675842779
      46    1       1.291925000000000        3.055937255397854        3.881561633467227
      47    1       3.875775000000000        7.334249412954848        1.411476957624442
      48    1       1.291925000000000        6.111874510795710        2.822953915248892
      49    1       1.291925000000001        9.167811766193562        1.764346197030554
      50    1       3.875775000000000        3.667124706477427        5.645907830497781
      51    1       3.875775000000000        6.723061961875279        4.587300112279443
      52    1       1.291925000000001        5.500687059716140        5.998777069903893
      53    1       3.875775000000000        9.778999217273135        3.528692394061112
      54    1       1.291925000000001        8.556624315113993        4.940169351685559
      55    1       3.875775000000000        6.111874510795711        7.763123266934450
      56    1       3.875775000000000        9.167811766193566        6.704515548716117
      57    1       1.291925000000001        7.945436864034424        8.115992506340561
      58    1       1.291925000000001       11.001374119432278        7.057384788122230
      59    1       3.875775000000001        8.556624315113995        9.880338703371116
      60    1       1.291925000000001        7.334249412954854       11.291815660995566
      61    1       3.875775000000001       11.612561570511847        8.821730985152783
      62    1       1.291925000000001       10.390186668352708       10.233207942777232
      63    1       1.291925000000002       13.446123923750561        9.174600224558898
      64    1       3.875775000000001        7.945436864034425       13.056161858026124
      65    1       3.875775000000001       11.001374119432279       11.997554139807789
      66    1       1.291925000000002        9.778999217273139       13.409031097432232
      67    1       3.875775000000001       14.057311374830135       10.938946421589455
      68    1       1.291925000000002       12.834936472670993       12.350423379213899
      69    1       3.875775000000001       10.390186668352710       15.173377294462789
      70    1       3.875775000000001       13.446123923750566       14.114769576244456
      71    1       1.291925000000002       12.223749021591424       15.526246533868903
      72    1       1.291925000000002       15.279686276989276       14.467638815650568
      73    1       3.875775000000002       12.834936472670996       17.290592730899462
      74    1       1.291925000000002       11.612561570511854       18.702069688523903
      75    1       3.875775000000002       15.890873728068851       16.231985012681129
      76    1       1.291925000000002       14.668498825909708       17.643461970305570
      77    1       1.291925000000003       17.724436081307562       16.584854252087233
      78    1       3.875775000000002       12.223749021591427       20.466415885554461
      79    1       3.875775000000002       15.279686276989281       19.407808167336128
      80    1       1.291925000000003       14.057311374830139       20.819285124960576
      81    1       3.875775000000002       18.335623532387135       18.349200449117792
      82    1       1.291925000000003       17.113248630227993       19.760677406742239
      83    1       3.875775000000003       17.724436081307566       21.525023603772798
      84    1       1.291925000000003       19.557998434546278       21.877892843178909
