ITEM: TIMESTEP
1
ITEM: NUMBER OF ATOMS
84
ITEM: BOX BOUNDS xy xz yz pp pp pp
0.0000000000000000e+000 5.1677000000000071e+000 1.0000000000000001e-015
0.0000000000000000e+000 3.4226497260342001e+001 5.9999999999999997e-015
0.0000000000000000e+000 4.4461524165000000e+001 2.5669872945341996e+001
ITEM: ATOMS id type x y z c_peatom c_datom[1] c_datom[2] c_datom[3] c_datom[4] c_voratom[1] c_voratom[2] 
    1     1         3.8757750000        14.6684988259        22.5836313220        -6.6347091852         0.0000000000         0.0000000000        -0.0000000000         0.0000000000        23.4047937556    16 
    2     1         1.2919250000        16.5020611792        22.9365005614        -6.6347091852        -0.0000000000         0.0000000000        -0.0000000000         0.0000000000        23.4047937556    12 
    3     1         3.8757750000        17.1132486303        24.7008467584        -6.6347091852        -0.0000000000         0.0000000000        -0.0000000000         0.0000000000        23.4047937556    16 
    4     1         1.2919250000        15.8908737281        26.1123237161        -6.6347091852        -0.0000000000         0.0000000000         0.0000000000         0.0000000000        23.4047937556    14 
    5     1         3.8757750000        20.1691858856        23.6422390402        -6.6347091852         0.0000000000        -0.0000000000         0.0000000000         0.0000000000        23.4047937556    12 
    6     1         1.2919250000        18.9468109835        25.0537159978        -6.6347091852        -0.0000000000         0.0000000000         0.0000000000         0.0000000000        23.4047937556    14 
    7     1         1.2919250000        22.0027482388        23.9951082796        -6.6347091852        -0.0000000000        -0.0000000000         0.0000000000         0.0000000000        23.4047937556    14 
    8     1         3.8757750000        16.5020611792        27.8766699131        -6.6347091852         0.0000000000         0.0000000000        -0.0000000000         0.0000000000        23.4047937556    14 
    9     1         3.8757750000        19.5579984345        26.8180621949        -6.6347091852         0.0000000000        -0.0000000000        -0.0000000000         0.0000000000        23.4047937556    14 
   10     1         1.2919250000        18.3356235324        28.2295391525        -6.6347091852        -0.0000000000         0.0000000000        -0.0000000000         0.0000000000        23.4047937556    12 
   11     1         3.8757750000        22.6139356899        25.7594544766        -6.6347091852         0.0000000000        -0.0000000000        -0.0000000000         0.0000000000        23.4047937556    14 
   12     1         1.2919250000        21.3915607878        27.1709314343        -6.6347091852        -0.0000000000        -0.0000000000         0.0000000000         0.0000000000        23.4047937556    16 
   13     1         3.8757750000        18.9468109835        29.9938853495        -6.6347091852         0.0000000000         0.0000000000        -0.0000000000         0.0000000000        23.4047937556    16 
   14     1         3.8757750000        22.0027482388        28.9352776313        -6.6347091852        -0.0000000000        -0.0000000000         0.0000000000         0.0000000000        23.4047937556    12 
   15     1         1.2919250000        20.7803733367        30.3467545889        -6.6347091852        -0.0000000000         0.0000000000        -0.0000000000         0.0000000000        23.4047937556    12 
   16     1         1.2919250000        23.8363105921        29.2881468707        -6.6347091852         0.0000000000        -0.0000000000         0.0000000000         0.0000000000        23.4047937556    16 
   17     1         3.8757750000        21.3915607878        32.1111007859        -6.6347091852        -0.0000000000         0.0000000000        -0.0000000000         0.0000000000        23.4047937556    16 
   18     1         1.2919250000        20.1691858857        33.5225777436        -6.6347091852         0.0000000000         0.0000000000         0.0000000000         0.0000000000        23.4047937556    14 
   19     1         3.8757750000        24.4474980432        31.0524930677        -6.6347091852         0.0000000000        -0.0000000000         0.0000000000         0.0000000000        23.4047937556    12 
   20     1         1.2919250000        23.2251231410        32.4639700254        -6.6347091852        -0.0000000000         0.0000000000         0.0000000000         0.0000000000        23.4047937556    14 
   21     1         1.2919250000        26.2810603964        31.4053623071        -6.6347091852        -0.0000000000        -0.0000000000         0.0000000000         0.0000000000        23.4047937556    14 
   22     1         3.8757750000        20.7803733367        35.2869239406        -6.6347091852         0.0000000000         0.0000000000        -0.0000000000         0.0000000000        23.4047937556    14 
   23     1         3.8757750000        23.8363105921        34.2283162224        -6.6347091852         0.0000000000        -0.0000000000        -0.0000000000         0.0000000000        23.4047937556    14 
   24     1         1.2919250000        22.6139356900        35.6397931800        -6.6347091852        -0.0000000000         0.0000000000        -0.0000000000         0.0000000000        23.4047937556    12 
   25     1         3.8757750000        26.8922478475        33.1697085042        -6.6347091852         0.0000000000        -0.0000000000        -0.0000000000         0.0000000000        23.4047937556    14 
   26     1         1.2919250000        25.6698729453        34.5811854618        -6.6347091852        -0.0000000000        -0.0000000000         0.0000000000         0.0000000000        23.4047937556    16 
   27     1         3.8757750000        23.2251231410        37.4041393770        -6.6347091852         0.0000000000         0.0000000000        -0.0000000000         0.0000000000        23.4047937556    16 
   28     1         3.8757750000        26.2810603964        36.3455316588        -6.6347091852         0.0000000000        -0.0000000000         0.0000000000         0.0000000000        23.4047937556    12 
   29     1         1.2919250000        25.0586854943        37.7570086164        -6.6347091852        -0.0000000000         0.0000000000        -0.0000000000         0.0000000000        23.4047937556    12 
   30     1         1.2919250000        28.1146227496        36.6984008983        -6.6347091852        -0.0000000000        -0.0000000000         0.0000000000         0.0000000000        23.4047937556    16 
   31     1         3.8757750000        25.6698729454        39.5213548135        -6.6347091852         0.0000000000         0.0000000000        -0.0000000000         0.0000000000        23.4047937555    18 
   32     1         1.2919250000        24.4474980432        40.9328317711        -6.6347091852        -0.0000000000         0.0000000000        -0.0000000000         0.0000000000        23.4047937553    13 
   33     1         3.8757750000        28.7258102007        38.4627470953        -6.6347091852         0.0000000000        -0.0000000000         0.0000000000         0.0000000000        23.4047937555    12 
   34     1         1.2919250000        27.5034352986        39.8742240529        -6.6347091852        -0.0000000000         0.0000000000         0.0000000000         0.0000000000        23.4047937554    12 
   35     1         1.2919250000        30.5593725539        38.8156163347        -6.6347091852        -0.0000000000        -0.0000000000         0.0000000000         0.0000000000        23.4047937555    16 
   36     1         3.8757750000        25.0586854943        42.6971779681        -6.6347091852         0.0000000000         0.0000000000        -0.0000000001         0.0000000001        23.4047937551    12 
   37     1         3.8757750000        28.1146227497        41.6385702499        -6.6347091852         0.0000000000         0.0000000000        -0.0000000000         0.0000000000        23.4047937552    14 
   38     1         1.2919250000        26.8922478475        43.0500472075        -6.6347091852        -0.0000000000         0.0000000000        -0.0000000001         0.0000000001        23.4047937551    16 
   39     1         3.8757750000        31.1705600050        40.5799625317        -6.6347091852         0.0000000000        -0.0000000000        -0.0000000000         0.0000000000        23.4047937553    12 
   40     1         1.2919250000        29.9481851029        41.9914394893        -6.6347091852        -0.0000000000        -0.0000000000        -0.0000000000         0.0000000000        23.4047937553    14 
   41     1         3.8757750000        30.5593725540        43.7557856863        -6.6347091852         0.0000000000        -0.0000000000        -0.0000000001         0.0000000001        23.4047937551    12 
   42     1         1.2919250000        32.3929349072        44.1086549257        -6.6347091852        -0.0000000000        -0.0000000000        -0.0000000000         0.0000000001        23.4047937551    14 
   43     1         3.8757750000         1.8335623533         0.3528692395        -6.6347091852         0.0000000000         0.0000000000         0.0000000000         0.0000000001        23.4047937551    14 
   44     1         1.2919250000         3.6671247065         0.7057384789        -6.6347091852        -0.0000000000         0.0000000000         0.0000000001         0.0000000001        23.4047937551    12 
   45     1         3.8757750000         4.2783121576         2.4700846759        -6.6347091852        -0.0000000000         0.0000000000         0.0000000000         0.0000000000        23.4047937553    14 
   46     1         1.2919250000         3.0559372554         3.8815616335        -6.6347091852        -0.0000000000         0.0000000000         0.0000000000         0.0000000000        23.4047937553    12 
   47     1         3.8757750000         7.3342494129         1.4114769577        -6.6347091852         0.0000000000        -0.0000000000         0.0000000001         0.0000000001        23.4047937551    16 
   48     1         1.2919250000         6.1118745108         2.8229539153        -6.6347091852         0.0000000000        -0.0000000000         0.0000000000         0.0000000000        23.4047937552    14 
   49     1         1.2919250000         9.1678117662         1.7643461971        -6.6347091852        -0.0000000000        -0.0000000000         0.0000000001         0.0000000001        25.4416482920    13 
   50     1         3.8757750000         3.6671247065         5.6459078305        -6.6347091852         0.0000000000         0.0000000000        -0.0000000000         0.0000000000        23.4047937555    16 
   51     1         3.8757750000         6.7230619619         4.5873001123        -6.6347091852         0.0000000000        -0.0000000000        -0.0000000000         0.0000000000        23.4047937554    12 
   52     1         1.2919250000         5.5006870597         5.9987770699        -6.6347091852        -0.0000000000         0.0000000000        -0.0000000000         0.0000000000        23.4047937555    12 
   53     1         3.8757750000         9.7789992172         3.5286923941        -6.6347091852         0.0000000000        -0.0000000000         0.0000000000         0.0000000000        23.4047937553    12 
   54     1         1.2919250000         8.5566243151         4.9401693517        -6.6347091852        -0.0000000000        -0.0000000000         0.0000000000         0.0000000000        23.4047937555    18 
   55     1         3.8757750000         6.1118745108         7.7631232669        -6.6347091852         0.0000000000         0.0000000000        -0.0000000000         0.0000000000        23.4047937556    16 
   56     1         3.8757750000         9.1678117662         6.7045155487        -6.6347091852         0.0000000000        -0.0000000000         0.0000000000         0.0000000000        23.4047937556    12 
   57     1         1.2919250000         7.9454368641         8.1159925063        -6.6347091852        -0.0000000000         0.0000000000        -0.0000000000         0.0000000000        23.4047937556    12 
   58     1         1.2919250000        11.0013741194         7.0573847881        -6.6347091852        -0.0000000000        -0.0000000000         0.0000000000         0.0000000000        23.4047937556    16 
   59     1         3.8757750000         8.5566243151         9.8803387034        -6.6347091852         0.0000000000         0.0000000000        -0.0000000000         0.0000000000        23.4047937556    16 
   60     1         1.2919250000         7.3342494130        11.2918156610        -6.6347091852        -0.0000000000         0.0000000000         0.0000000000         0.0000000000        23.4047937556    14 
   61     1         3.8757750000        11.6125615705         8.8217309852        -6.6347091852         0.0000000000        -0.0000000000         0.0000000000         0.0000000000        23.4047937556    12 
   62     1         1.2919250000        10.3901866684        10.2332079428        -6.6347091852        -0.0000000000         0.0000000000         0.0000000000         0.0000000000        23.4047937556    14 
   63     1         1.2919250000        13.4461239237         9.1746002246        -6.6347091852        -0.0000000000        -0.0000000000         0.0000000000         0.0000000000        23.4047937556    14 
   64     1         3.8757750000         7.9454368641        13.0561618580        -6.6347091852         0.0000000000         0.0000000000        -0.0000000000         0.0000000000        23.4047937556    14 
   65     1         3.8757750000        11.0013741194        11.9975541398        -6.6347091852         0.0000000000        -0.0000000000        -0.0000000000         0.0000000000        23.4047937556    14 
   66     1         1.2919250000         9.7789992173        13.4090310974        -6.6347091852        -0.0000000000         0.0000000000        -0.0000000000         0.0000000000        23.4047937556    12 
   67     1         3.8757750000        14.0573113748        10.9389464216        -6.6347091852         0.0000000000        -0.0000000000        -0.0000000000         0.0000000000        23.4047937556    14 
   68     1         1.2919250000        12.8349364726        12.3504233792        -6.6347091852        -0.0000000000        -0.0000000000         0.0000000000         0.0000000000        23.4047937556    16 
   69     1         3.8757750000        10.3901866684        15.1733772944        -6.6347091852         0.0000000000         0.0000000000        -0.0000000000         0.0000000000        23.4047937556    16 
   70     1         3.8757750000        13.4461239237        14.1147695763        -6.6347091852         0.0000000000        -0.0000000000         0.0000000000         0.0000000000        23.4047937556    12 
   71     1         1.2919250000        12.2237490216        15.5262465339        -6.6347091852        -0.0000000000         0.0000000000        -0.0000000000         0.0000000000        23.4047937556    12 
   72     1         1.2919250000        15.2796862770        14.4676388157        -6.6347091852        -0.0000000000        -0.0000000000         0.0000000000         0.0000000000        23.4047937556    16 
   73     1         3.8757750000        12.8349364727        17.2905927309        -6.6347091852         0.0000000000         0.0000000000        -0.0000000000         0.0000000000        23.4047937556    16 
   74     1         1.2919250000        11.6125615706        18.7020696885        -6.6347091852        -0.0000000000         0.0000000000         0.0000000000         0.0000000000        23.4047937556    14 
   75     1         3.8757750000        15.8908737280        16.2319850127        -6.6347091852         0.0000000000        -0.0000000000         0.0000000000         0.0000000000        23.4047937556    12 
   76     1         1.2919250000        14.6684988259        17.6434619703        -6.6347091852        -0.0000000000         0.0000000000         0.0000000000         0.0000000000        23.4047937556    14 
   77     1         1.2919250000        17.7244360813        16.5848542521        -6.6347091852        -0.0000000000        -0.0000000000         0.0000000000         0.0000000000        23.4047937556    14 
   78     1         3.8757750000        12.2237490216        20.4664158855        -6.6347091852         0.0000000000         0.0000000000        -0.0000000000         0.0000000000        23.4047937556    14 
   79     1         3.8757750000        15.2796862770        19.4078081673        -6.6347091852         0.0000000000        -0.0000000000        -0.0000000000         0.0000000000        23.4047937556    14 
   80     1         1.2919250000        14.0573113749        20.8192851249        -6.6347091852        -0.0000000000         0.0000000000        -0.0000000000         0.0000000000        23.4047937556    12 
   81     1         3.8757750000        18.3356235323        18.3492004491        -6.6347091852         0.0000000000        -0.0000000000        -0.0000000000         0.0000000000        23.4047937556    14 
   82     1         1.2919250000        17.1132486302        19.7606774068        -6.6347091852        -0.0000000000        -0.0000000000         0.0000000000         0.0000000000        23.4047937556    16 
   83     1         3.8757750000        17.7244360813        21.5250236038        -6.6347091852         0.0000000000        -0.0000000000         0.0000000000         0.0000000000        23.4047937556    12 
   84     1         1.2919250000        19.5579984345        21.8778928432        -6.6347091852        -0.0000000000        -0.0000000000         0.0000000000         0.0000000000        23.4047937556    16 
