Header

228 atoms
1 atom types

0.0   14.097115073 xlo xhi
0.0   12.208459774 ylo yhi
0.0   31.006200000 zlo zhi

7.048557536652448        0.000000000000003        0.000000000000002        xy xz yz

Atoms

       1    1       1.112930137366178        1.499284533594421       16.795024999999999
       2    1       1.112930137366179        1.499284533594422       21.962724999999999
       3    1       1.112930137366179        1.499284533594422       27.130424999999999
       4    1       2.225860274732355        2.998569067188842       19.378875000000001
       5    1       2.225860274732355        2.998569067188843       24.546574999999997
       6    1       2.225860274732356        2.998569067188843       29.714275000000001
       7    1       4.822697261920100        1.070917523996017       19.378875000000001
       8    1       4.080743837009314        2.784385562389639       16.795024999999999
       9    1       4.822697261920100        1.070917523996017       24.546574999999997
      10    1       4.080743837009315        2.784385562389640       21.962724999999999
      11    1       4.822697261920100        1.070917523996017       29.714275000000001
      12    1       4.080743837009315        2.784385562389639       27.130424999999999
      13    1       6.677580824197059        0.856734019196812       16.795024999999999
      14    1       6.677580824197060        0.856734019196812       21.962724999999999
      15    1       6.677580824197060        0.856734019196812       27.130424999999999
      16    1       5.193673974375490        4.283670095984061       19.378875000000001
      17    1       4.451720549464707        5.997138134377684       16.795024999999999
      18    1       5.193673974375491        4.283670095984061       24.546574999999997
      19    1       4.451720549464707        5.997138134377684       21.962724999999999
      20    1       5.193673974375491        4.283670095984062       29.714275000000001
      21    1       4.451720549464707        5.997138134377684       27.130424999999999
      22    1       7.790510961563234        2.356018552791234       19.378875000000001
      23    1       7.048557536652451        4.069486591184855       16.795024999999999
      24    1       7.790510961563236        2.356018552791234       24.546574999999997
      25    1       7.048557536652452        4.069486591184856       21.962724999999999
      26    1       7.790510961563236        2.356018552791235       29.714275000000001
      27    1       7.048557536652452        4.069486591184856       27.130424999999999
      28    1      10.387347948750978        0.428367009598407       19.378875000000001
      29    1       9.645394523840194        2.141835047992031       16.795024999999999
      30    1      10.387347948750978        0.428367009598408       24.546574999999997
      31    1       9.645394523840194        2.141835047992031       21.962724999999999
      32    1      10.387347948750980        0.428367009598409       29.714275000000001
      33    1       9.645394523840196        2.141835047992030       27.130424999999999
      34    1      12.242231511027937        0.214183504799204       16.795024999999999
      35    1      12.242231511027937        0.214183504799204       21.962724999999999
      36    1      12.242231511027937        0.214183504799204       27.130424999999999
      37    1       5.564650686830881        7.496422667972103       19.378875000000001
      38    1       5.564650686830884        7.496422667972105       24.546574999999997
      39    1       5.564650686830884        7.496422667972105       29.714275000000001
      40    1       8.161487674018627        5.568771124779278       19.378875000000001
      41    1       7.419534249107842        7.282239163172902       16.795024999999999
      42    1       8.161487674018627        5.568771124779280       24.546574999999997
      43    1       7.419534249107843        7.282239163172902       21.962724999999999
      44    1       8.161487674018629        5.568771124779280       29.714275000000001
      45    1       7.419534249107844        7.282239163172902       27.130424999999999
      46    1      10.758324661206370        3.641119581586452       19.378875000000001
      47    1      10.016371236295587        5.354587619980075       16.795024999999999
      48    1      10.758324661206373        3.641119581586453       24.546574999999997
      49    1      10.016371236295587        5.354587619980075       21.962724999999999
      50    1      10.758324661206373        3.641119581586453       29.714275000000001
      51    1      10.016371236295589        5.354587619980076       27.130424999999999
      52    1      13.355161648394112        1.713468038393623       19.378875000000001
      53    1      12.613208223483330        3.426936076787246       16.795024999999999
      54    1      13.355161648394116        1.713468038393625       24.546574999999997
      55    1      12.613208223483330        3.426936076787246       21.962724999999999
      56    1      13.355161648394116        1.713468038393625       29.714275000000001
      57    1      12.613208223483330        3.426936076787248       27.130424999999999
      58    1       8.532464386474018        8.781523696767321       19.378875000000001
      59    1       7.790510961563236       10.494991735160946       16.795024999999999
      60    1       8.532464386474020        8.781523696767323       24.546574999999997
      61    1       7.790510961563236       10.494991735160946       21.962724999999999
      62    1       8.532464386474020        8.781523696767321       29.714275000000001
      63    1       7.790510961563237       10.494991735160946       27.130424999999999
      64    1      11.129301373661761        6.853872153574494       19.378875000000001
      65    1      10.387347948750980        8.567340191968119       16.795024999999999
      66    1      11.129301373661765        6.853872153574495       24.546574999999997
      67    1      10.387347948750980        8.567340191968119       21.962724999999999
      68    1      11.129301373661765        6.853872153574495       29.714275000000001
      69    1      10.387347948750982        8.567340191968121       27.130424999999999
      70    1      13.726138360849507        4.926220610381664       19.378875000000001
      71    1      12.984184935938721        6.639688648775294       16.795024999999999
      72    1      13.726138360849507        4.926220610381666       24.546574999999997
      73    1      12.984184935938721        6.639688648775294       21.962724999999999
      74    1      13.726138360849507        4.926220610381666       29.714275000000001
      75    1      12.984184935938721        6.639688648775293       27.130424999999999
      76    1      15.581021923126467        4.712037105582466       16.795024999999999
      77    1      15.581021923126467        4.712037105582466       21.962724999999999
      78    1      15.581021923126467        4.712037105582468       27.130424999999999
      79    1       8.903441098929411       11.994276268755366       19.378875000000001
      80    1       8.903441098929413       11.994276268755367       24.546574999999997
      81    1       8.903441098929413       11.994276268755367       29.714275000000001
      82    1      11.500278086117156       10.066624725562539       19.378875000000001
      83    1      10.758324661206373       11.780092763956166       16.795024999999999
      84    1      11.500278086117158       10.066624725562541       24.546574999999997
      85    1      10.758324661206373       11.780092763956166       21.962724999999999
      86    1      11.500278086117158       10.066624725562541       29.714275000000001
      87    1      10.758324661206373       11.780092763956166       27.130424999999999
      88    1      14.097115073304900        8.138973182369710       19.378875000000001
      89    1      13.355161648394114        9.852441220763341       16.795024999999999
      90    1      14.097115073304902        8.138973182369710       24.546574999999997
      91    1      13.355161648394114        9.852441220763341       21.962724999999999
      92    1      14.097115073304902        8.138973182369710       29.714275000000001
      93    1      13.355161648394116        9.852441220763342       27.130424999999999
      94    1      16.693952060492645        6.211321639176884       19.378875000000001
      95    1      15.951998635581859        7.924789677570512       16.795024999999999
      96    1      16.693952060492649        6.211321639176886       24.546574999999997
      97    1      15.951998635581859        7.924789677570512       21.962724999999999
      98    1      16.693952060492649        6.211321639176886       29.714275000000001
      99    1      15.951998635581859        7.924789677570514       27.130424999999999
     100    1      14.468091785760292       11.351725754357753       19.378875000000001
     101    1      14.468091785760292       11.351725754357751       24.546574999999997
     102    1      14.468091785760292       11.351725754357751       29.714275000000001
     103    1      17.064928772948036        9.424074211164925       19.378875000000001
     104    1      16.322975348037250       11.137542249558555       16.795024999999999
     105    1      17.064928772948036        9.424074211164925       24.546574999999997
     106    1      16.322975348037250       11.137542249558555       21.962724999999999
     107    1      17.064928772948036        9.424074211164925       29.714275000000001
     108    1      16.322975348037250       11.137542249558555       27.130424999999999
     109    1      18.919812335224993        9.209890706365728       16.795024999999999
     110    1      18.919812335224993        9.209890706365728       21.962724999999999
     111    1      18.919812335224993        9.209890706365728       27.130424999999999
     112    1      20.032742472591170       10.709175239960146       19.378875000000001
     113    1      20.032742472591170       10.709175239960146       24.546574999999997
     114    1      20.032742472591170       10.709175239960146       29.714275000000001
     115    1       1.112930137366176        1.499284533594421        1.291925000000001
     116    1       1.112930137366177        1.499284533594421        6.459625000000001
     117    1       1.112930137366178        1.499284533594421       11.627324999999999
     118    1       2.225860274732353        2.998569067188842        3.875775000000001
     119    1       2.225860274732354        2.998569067188842        9.043475000000001
     120    1       2.225860274732354        2.998569067188842       14.211175000000001
     121    1       4.822697261920096        1.070917523996016        3.875775000000001
     122    1       4.080743837009312        2.784385562389638        1.291925000000001
     123    1       4.822697261920098        1.070917523996016        9.043475000000001
     124    1       4.080743837009313        2.784385562389638        6.459625000000001
     125    1       4.822697261920098        1.070917523996016       14.211175000000001
     126    1       4.080743837009314        2.784385562389639       11.627324999999999
     127    1       6.677580824197057        0.856734019196811        1.291925000000001
     128    1       6.677580824197058        0.856734019196811        6.459625000000001
     129    1       6.677580824197059        0.856734019196812       11.627324999999999
     130    1       5.193673974375489        4.283670095984061        3.875775000000001
     131    1       4.451720549464706        5.997138134377683        1.291925000000001
     132    1       5.193673974375489        4.283670095984060        9.043475000000001
     133    1       4.451720549464706        5.997138134377684        6.459625000000001
     134    1       5.193673974375490        4.283670095984061       14.211175000000001
     135    1       4.451720549464707        5.997138134377684       11.627324999999999
     136    1       7.790510961563232        2.356018552791233        3.875775000000001
     137    1       7.048557536652449        4.069486591184854        1.291925000000001
     138    1       7.790510961563234        2.356018552791233        9.043475000000001
     139    1       7.048557536652450        4.069486591184855        6.459625000000001
     140    1       7.790510961563234        2.356018552791234       14.211175000000001
     141    1       7.048557536652450        4.069486591184856       11.627324999999999
     142    1      10.387347948750978        0.428367009598406        3.875775000000001
     143    1       9.645394523840192        2.141835047992030        1.291925000000001
     144    1      10.387347948750978        0.428367009598406        9.043475000000001
     145    1       9.645394523840192        2.141835047992031        6.459625000000001
     146    1      10.387347948750978        0.428367009598407       14.211175000000001
     147    1       9.645394523840194        2.141835047992031       11.627324999999999
     148    1      12.242231511027935        0.214183504799203        1.291925000000001
     149    1      12.242231511027935        0.214183504799204        6.459625000000001
     150    1      12.242231511027937        0.214183504799204       11.627324999999999
     151    1       5.564650686830880        7.496422667972103        3.875775000000001
     152    1       5.564650686830881        7.496422667972104        9.043475000000001
     153    1       5.564650686830881        7.496422667972103       14.211175000000001
     154    1       8.161487674018623        5.568771124779277        3.875775000000001
     155    1       7.419534249107842        7.282239163172900        1.291925000000001
     156    1       8.161487674018627        5.568771124779279        9.043475000000001
     157    1       7.419534249107842        7.282239163172900        6.459625000000001
     158    1       8.161487674018627        5.568771124779279       14.211175000000001
     159    1       7.419534249107842        7.282239163172902       11.627324999999999
     160    1      10.758324661206368        3.641119581586451        3.875775000000001
     161    1      10.016371236295585        5.354587619980073        1.291925000000001
     162    1      10.758324661206370        3.641119581586452        9.043475000000001
     163    1      10.016371236295585        5.354587619980073        6.459625000000001
     164    1      10.758324661206370        3.641119581586452       14.211175000000001
     165    1      10.016371236295587        5.354587619980075       11.627324999999999
     166    1      13.355161648394112        1.713468038393622        3.875775000000001
     167    1      12.613208223483326        3.426936076787245        1.291925000000001
     168    1      13.355161648394112        1.713468038393623        9.043475000000001
     169    1      12.613208223483326        3.426936076787245        6.459625000000001
     170    1      13.355161648394112        1.713468038393623       14.211175000000001
     171    1      12.613208223483330        3.426936076787246       11.627324999999999
     172    1       8.532464386474016        8.781523696767319        3.875775000000001
     173    1       7.790510961563235       10.494991735160946        1.291925000000001
     174    1       8.532464386474018        8.781523696767321        9.043475000000001
     175    1       7.790510961563235       10.494991735160946        6.459625000000001
     176    1       8.532464386474018        8.781523696767321       14.211175000000001
     177    1       7.790510961563236       10.494991735160946       11.627324999999999
     178    1      11.129301373661761        6.853872153574493        3.875775000000001
     179    1      10.387347948750978        8.567340191968119        1.291925000000001
     180    1      11.129301373661761        6.853872153574494        9.043475000000001
     181    1      10.387347948750978        8.567340191968119        6.459625000000001
     182    1      11.129301373661761        6.853872153574494       14.211175000000001
     183    1      10.387347948750978        8.567340191968119       11.627324999999999
     184    1      13.726138360849506        4.926220610381664        3.875775000000001
     185    1      12.984184935938718        6.639688648775293        1.291925000000001
     186    1      13.726138360849507        4.926220610381664        9.043475000000001
     187    1      12.984184935938718        6.639688648775293        6.459625000000001
     188    1      13.726138360849507        4.926220610381664       14.211175000000001
     189    1      12.984184935938721        6.639688648775294       11.627324999999999
     190    1      15.581021923126466        4.712037105582466        1.291925000000001
     191    1      15.581021923126466        4.712037105582466        6.459625000000001
     192    1      15.581021923126467        4.712037105582466       11.627324999999999
     193    1       8.903441098929411       11.994276268755366        3.875775000000001
     194    1       8.903441098929411       11.994276268755367        9.043475000000001
     195    1       8.903441098929411       11.994276268755367       14.211175000000001
     196    1      11.500278086117154       10.066624725562539        3.875775000000001
     197    1      10.758324661206371       11.780092763956164        1.291925000000001
     198    1      11.500278086117156       10.066624725562541        9.043475000000001
     199    1      10.758324661206371       11.780092763956164        6.459625000000001
     200    1      11.500278086117156       10.066624725562541       14.211175000000001
     201    1      10.758324661206373       11.780092763956166       11.627324999999999
     202    1      14.097115073304899        8.138973182369709        3.875775000000001
     203    1      13.355161648394112        9.852441220763339        1.291925000000001
     204    1      14.097115073304900        8.138973182369710        9.043475000000001
     205    1      13.355161648394112        9.852441220763339        6.459625000000001
     206    1      14.097115073304900        8.138973182369710       14.211175000000001
     207    1      13.355161648394114        9.852441220763341       11.627324999999999
     208    1      16.693952060492645        6.211321639176882        3.875775000000001
     209    1      15.951998635581859        7.924789677570510        1.291925000000001
     210    1      16.693952060492645        6.211321639176884        9.043475000000001
     211    1      15.951998635581859        7.924789677570510        6.459625000000001
     212    1      16.693952060492645        6.211321639176884       14.211175000000001
     213    1      15.951998635581859        7.924789677570512       11.627324999999999
     214    1      14.468091785760290       11.351725754357753        3.875775000000001
     215    1      14.468091785760292       11.351725754357753        9.043475000000001
     216    1      14.468091785760292       11.351725754357753       14.211175000000001
     217    1      17.064928772948036        9.424074211164925        3.875775000000001
     218    1      16.322975348037247       11.137542249558555        1.291925000000001
     219    1      17.064928772948036        9.424074211164925        9.043475000000001
     220    1      16.322975348037247       11.137542249558555        6.459625000000001
     221    1      17.064928772948036        9.424074211164925       14.211175000000001
     222    1      16.322975348037250       11.137542249558555       11.627324999999999
     223    1      18.919812335224993        9.209890706365728        1.291925000000001
     224    1      18.919812335224993        9.209890706365728        6.459625000000001
     225    1      18.919812335224993        9.209890706365728       11.627324999999999
     226    1      20.032742472591170       10.709175239960146        3.875775000000001
     227    1      20.032742472591170       10.709175239960146        9.043475000000001
     228    1      20.032742472591170       10.709175239960146       14.211175000000001
