ITEM: TIMESTEP
1
ITEM: NUMBER OF ATOMS
228
ITEM: BOX BOUNDS xy xz yz pp pp pp
0.0000000000000000e+000 2.1145672609652451e+001 7.0485575366524484e+000
0.0000000000000000e+000 1.2208459774000001e+001 2.9999999999999998e-015
0.0000000000000000e+000 3.1006200000000000e+001 2.0000000000000002e-015
ITEM: ATOMS id type x y z c_peatom c_datom[1] c_datom[2] c_datom[3] c_datom[4] c_voratom[1] c_voratom[2] 
    1     1         1.1129301375         1.4992845334        16.7950250000        -6.6347091852         0.0000000002        -0.0000000002         0.0000000000         0.0000000002        23.4047937563    14 
    2     1         1.1129301375         1.4992845334        21.9627250000        -6.6347091852         0.0000000002        -0.0000000002         0.0000000000         0.0000000002        23.4047937563    14 
    3     1         1.1129301375         1.4992845334        27.1304250000        -6.6347091852         0.0000000002        -0.0000000002         0.0000000000         0.0000000002        23.4047937563    14 
    4     1         2.2258602748         2.9985690671        19.3788750000        -6.6347091852         0.0000000001        -0.0000000001         0.0000000000         0.0000000001        23.4047937561    14 
    5     1         2.2258602748         2.9985690671        24.5465750000        -6.6347091852         0.0000000001        -0.0000000001         0.0000000000         0.0000000001        23.4047937561    14 
    6     1         2.2258602748         2.9985690671        29.7142750000        -6.6347091852         0.0000000001        -0.0000000001         0.0000000000         0.0000000001        23.4047937561    14 
    7     1         4.8226972619         1.0709175238        19.3788750000        -6.6347091852        -0.0000000000        -0.0000000002         0.0000000000         0.0000000002        23.4047937567    14 
    8     1         4.0807438370         2.7843855623        16.7950250000        -6.6347091852         0.0000000000        -0.0000000001         0.0000000000         0.0000000001        23.4047937563    14 
    9     1         4.8226972619         1.0709175238        24.5465750000        -6.6347091852        -0.0000000000        -0.0000000002         0.0000000000         0.0000000002        23.4047937567    14 
   10     1         4.0807438370         2.7843855623        21.9627250000        -6.6347091852         0.0000000000        -0.0000000001         0.0000000000         0.0000000001        23.4047937563    14 
   11     1         4.8226972619         1.0709175238        29.7142750000        -6.6347091852        -0.0000000000        -0.0000000002         0.0000000000         0.0000000002        23.4047937567    14 
   12     1         4.0807438370         2.7843855623        27.1304250000        -6.6347091852         0.0000000000        -0.0000000001         0.0000000000         0.0000000001        23.4047937563    14 
   13     1         6.6775808242         0.8567340190        16.7950250000        -6.6347091852         0.0000000000        -0.0000000002         0.0000000000         0.0000000002        23.4047937570    14 
   14     1         6.6775808242         0.8567340190        21.9627250000        -6.6347091852         0.0000000000        -0.0000000002         0.0000000000         0.0000000002        23.4047937570    14 
   15     1         6.6775808242         0.8567340190        27.1304250000        -6.6347091852         0.0000000000        -0.0000000002         0.0000000000         0.0000000002        23.4047937570    14 
   16     1         5.1936739744         4.2836700959        19.3788750000        -6.6347091852         0.0000000000        -0.0000000000         0.0000000000         0.0000000001        23.4047937561    14 
   17     1         4.4517205496         5.9971381344        16.7950250000        -6.6347091851         0.0000000001        -0.0000000000         0.0000000000         0.0000000001        23.4047937556    14 
   18     1         5.1936739744         4.2836700959        24.5465750000        -6.6347091852         0.0000000000        -0.0000000000         0.0000000000         0.0000000001        23.4047937561    14 
   19     1         4.4517205496         5.9971381344        21.9627250000        -6.6347091851         0.0000000001        -0.0000000000         0.0000000000         0.0000000001        23.4047937556    14 
   20     1         5.1936739744         4.2836700959        29.7142750000        -6.6347091852         0.0000000000        -0.0000000000         0.0000000000         0.0000000001        23.4047937561    14 
   21     1         4.4517205496         5.9971381344        27.1304250000        -6.6347091851         0.0000000001        -0.0000000000         0.0000000000         0.0000000001        23.4047937556    14 
   22     1         7.7905109616         2.3560185527        19.3788750000        -6.6347091852        -0.0000000000        -0.0000000001         0.0000000000         0.0000000001        23.4047937568    14 
   23     1         7.0485575367         4.0694865912        16.7950250000        -6.6347091852         0.0000000000        -0.0000000000         0.0000000000         0.0000000000        23.4047937562    14 
   24     1         7.7905109616         2.3560185527        24.5465750000        -6.6347091852        -0.0000000000        -0.0000000001         0.0000000000         0.0000000001        23.4047937568    14 
   25     1         7.0485575367         4.0694865912        21.9627250000        -6.6347091852         0.0000000000        -0.0000000000         0.0000000000         0.0000000000        23.4047937562    14 
   26     1         7.7905109616         2.3560185527        29.7142750000        -6.6347091852        -0.0000000000        -0.0000000001         0.0000000000         0.0000000001        23.4047937568    14 
   27     1         7.0485575367         4.0694865912        27.1304250000        -6.6347091852         0.0000000000        -0.0000000000         0.0000000000         0.0000000000        23.4047937562    14 
   28     1        10.3873479487         0.4283670094        19.3788750000        -6.6347091852        -0.0000000000        -0.0000000002         0.0000000000         0.0000000002        23.4047937565    14 
   29     1         9.6453945238         2.1418350479        16.7950250000        -6.6347091852        -0.0000000000        -0.0000000001         0.0000000000         0.0000000001        23.4047937568    14 
   30     1        10.3873479487         0.4283670094        24.5465750000        -6.6347091852        -0.0000000000        -0.0000000002         0.0000000000         0.0000000002        23.4047937565    14 
   31     1         9.6453945238         2.1418350479        21.9627250000        -6.6347091852        -0.0000000000        -0.0000000001         0.0000000000         0.0000000001        23.4047937568    14 
   32     1        10.3873479487         0.4283670094        29.7142750000        -6.6347091852        -0.0000000000        -0.0000000002         0.0000000000         0.0000000002        23.4047937565    14 
   33     1         9.6453945238         2.1418350479        27.1304250000        -6.6347091852        -0.0000000000        -0.0000000001         0.0000000000         0.0000000001        23.4047937568    14 
   34     1        12.2422315109         0.2141835046        16.7950250000        -6.6347091852        -0.0000000001        -0.0000000002         0.0000000000         0.0000000002        23.4047937564    14 
   35     1        12.2422315109         0.2141835046        21.9627250000        -6.6347091852        -0.0000000001        -0.0000000002         0.0000000000         0.0000000002        23.4047937564    14 
   36     1        12.2422315109         0.2141835046        27.1304250000        -6.6347091852        -0.0000000001        -0.0000000002         0.0000000000         0.0000000002        23.4047937564    14 
   37     1         5.5646506869         7.4964226680        19.3788750000        -6.6347091852         0.0000000001        -0.0000000000         0.0000000000         0.0000000001        23.4047937559    14 
   38     1         5.5646506869         7.4964226680        24.5465750000        -6.6347091852         0.0000000001        -0.0000000000         0.0000000000         0.0000000001        23.4047937559    14 
   39     1         5.5646506869         7.4964226680        29.7142750000        -6.6347091852         0.0000000001        -0.0000000000         0.0000000000         0.0000000001        23.4047937559    14 
   40     1         8.1614876740         5.5687711248        19.3788750000        -6.6347091852        -0.0000000000        -0.0000000000         0.0000000000         0.0000000000        23.4047937558    14 
   41     1         7.4195342492         7.2822391631        16.7950250000        -6.6347091851         0.0000000000        -0.0000000000         0.0000000000         0.0000000001        23.4047937556    14 
   42     1         8.1614876740         5.5687711248        24.5465750000        -6.6347091852        -0.0000000000        -0.0000000000         0.0000000000         0.0000000000        23.4047937558    14 
   43     1         7.4195342492         7.2822391631        21.9627250000        -6.6347091851         0.0000000000        -0.0000000000         0.0000000000         0.0000000001        23.4047937556    14 
   44     1         8.1614876740         5.5687711248        29.7142750000        -6.6347091852        -0.0000000000        -0.0000000000         0.0000000000         0.0000000000        23.4047937558    14 
   45     1         7.4195342492         7.2822391631        27.1304250000        -6.6347091851         0.0000000000        -0.0000000000         0.0000000000         0.0000000001        23.4047937556    14 
   46     1        10.7583246612         3.6411195816        19.3788750000        -6.6347091852        -0.0000000000        -0.0000000000         0.0000000000         0.0000000000        23.4047937563    14 
   47     1        10.0163712363         5.3545876200        16.7950250000        -6.6347091852         0.0000000000         0.0000000000         0.0000000000         0.0000000000        23.4047937559    14 
   48     1        10.7583246612         3.6411195816        24.5465750000        -6.6347091852        -0.0000000000        -0.0000000000         0.0000000000         0.0000000000        23.4047937563    14 
   49     1        10.0163712363         5.3545876200        21.9627250000        -6.6347091852         0.0000000000         0.0000000000         0.0000000000         0.0000000000        23.4047937559    14 
   50     1        10.7583246612         3.6411195816        29.7142750000        -6.6347091852        -0.0000000000        -0.0000000000        -0.0000000000         0.0000000000        23.4047937563    14 
   51     1        10.0163712363         5.3545876200        27.1304250000        -6.6347091852         0.0000000000         0.0000000000         0.0000000000         0.0000000000        23.4047937559    14 
   52     1        13.3551616483         1.7134680383        19.3788750000        -6.6347091852        -0.0000000001        -0.0000000001         0.0000000000         0.0000000001        23.4047937565    14 
   53     1        12.6132082234         3.4269360768        16.7950250000        -6.6347091852        -0.0000000000         0.0000000000         0.0000000000         0.0000000000        23.4047937564    14 
   54     1        13.3551616483         1.7134680383        24.5465750000        -6.6347091852        -0.0000000001        -0.0000000001         0.0000000000         0.0000000001        23.4047937565    14 
   55     1        12.6132082234         3.4269360768        21.9627250000        -6.6347091852        -0.0000000000         0.0000000000         0.0000000000         0.0000000000        23.4047937564    14 
   56     1        13.3551616483         1.7134680383        29.7142750000        -6.6347091852        -0.0000000001        -0.0000000001        -0.0000000000         0.0000000001        23.4047937565    14 
   57     1        12.6132082234         3.4269360768        27.1304250000        -6.6347091852        -0.0000000000         0.0000000000         0.0000000000         0.0000000000        23.4047937564    14 
   58     1         8.5324643865         8.7815236967        19.3788750000        -6.6347091852         0.0000000000        -0.0000000000        -0.0000000000         0.0000000000        23.4047937564    14 
   59     1         7.7905109617        10.4949917353        16.7950250000        -6.6347091852         0.0000000001         0.0000000001         0.0000000000         0.0000000001        23.4047937565    14 
   60     1         8.5324643865         8.7815236967        24.5465750000        -6.6347091852         0.0000000000        -0.0000000000         0.0000000000         0.0000000000        23.4047937564    14 
   61     1         7.7905109617        10.4949917353        21.9627250000        -6.6347091852         0.0000000001         0.0000000001         0.0000000000         0.0000000001        23.4047937565    14 
   62     1         8.5324643865         8.7815236967        29.7142750000        -6.6347091852         0.0000000000        -0.0000000000         0.0000000000         0.0000000000        23.4047937564    14 
   63     1         7.7905109617        10.4949917353        27.1304250000        -6.6347091852         0.0000000001         0.0000000001         0.0000000000         0.0000000001        23.4047937565    14 
   64     1        11.1293013737         6.8538721536        19.3788750000        -6.6347091852        -0.0000000000        -0.0000000000         0.0000000000         0.0000000000        23.4047937559    14 
   65     1        10.3873479488         8.5673401920        16.7950250000        -6.6347091852         0.0000000000         0.0000000000         0.0000000000         0.0000000000        23.4047937563    14 
   66     1        11.1293013737         6.8538721536        24.5465750000        -6.6347091852        -0.0000000000        -0.0000000000         0.0000000000         0.0000000000        23.4047937559    14 
   67     1        10.3873479488         8.5673401920        21.9627250000        -6.6347091852         0.0000000000         0.0000000000         0.0000000000         0.0000000000        23.4047937563    14 
   68     1        11.1293013737         6.8538721536        29.7142750000        -6.6347091852        -0.0000000000        -0.0000000000         0.0000000000         0.0000000000        23.4047937559    14 
   69     1        10.3873479488         8.5673401920        27.1304250000        -6.6347091852         0.0000000000         0.0000000000         0.0000000000         0.0000000000        23.4047937563    14 
   70     1        13.7261383608         4.9262206104        19.3788750000        -6.6347091851        -0.0000000000         0.0000000000         0.0000000000         0.0000000001        23.4047937556    14 
   71     1        12.9841849359         6.6396886488        16.7950250000        -6.6347091852         0.0000000000         0.0000000000         0.0000000000         0.0000000000        23.4047937558    14 
   72     1        13.7261383608         4.9262206104        24.5465750000        -6.6347091851        -0.0000000000         0.0000000000         0.0000000000         0.0000000001        23.4047937556    14 
   73     1        12.9841849359         6.6396886488        21.9627250000        -6.6347091852         0.0000000000         0.0000000000         0.0000000000         0.0000000000        23.4047937558    14 
   74     1        13.7261383608         4.9262206104        29.7142750000        -6.6347091851        -0.0000000000         0.0000000000         0.0000000000         0.0000000001        23.4047937556    14 
   75     1        12.9841849359         6.6396886488        27.1304250000        -6.6347091852         0.0000000000         0.0000000000         0.0000000000         0.0000000000        23.4047937558    14 
   76     1        15.5810219230         4.7120371056        16.7950250000        -6.6347091852        -0.0000000001         0.0000000000         0.0000000000         0.0000000001        23.4047937559    14 
   77     1        15.5810219230         4.7120371056        21.9627250000        -6.6347091852        -0.0000000001         0.0000000000         0.0000000000         0.0000000001        23.4047937559    14 
   78     1        15.5810219230         4.7120371056        27.1304250000        -6.6347091852        -0.0000000001         0.0000000000         0.0000000000         0.0000000001        23.4047937559    14 
   79     1         8.9034410990        11.9942762689        19.3788750000        -6.6347091852         0.0000000001         0.0000000002         0.0000000000         0.0000000002        23.4047937564    14 
   80     1         8.9034410990        11.9942762689        24.5465750000        -6.6347091852         0.0000000001         0.0000000002         0.0000000000         0.0000000002        23.4047937564    14 
   81     1         8.9034410990        11.9942762689        29.7142750000        -6.6347091852         0.0000000001         0.0000000002         0.0000000000         0.0000000002        23.4047937564    14 
   82     1        11.5002780861        10.0666247257        19.3788750000        -6.6347091852         0.0000000000         0.0000000001         0.0000000000         0.0000000001        23.4047937568    14 
   83     1        10.7583246612        11.7800927641        16.7950250000        -6.6347091852         0.0000000000         0.0000000002         0.0000000000         0.0000000002        23.4047937565    14 
   84     1        11.5002780861        10.0666247257        24.5465750000        -6.6347091852         0.0000000000         0.0000000001         0.0000000000         0.0000000001        23.4047937568    14 
   85     1        10.7583246612        11.7800927641        21.9627250000        -6.6347091852         0.0000000000         0.0000000002         0.0000000000         0.0000000002        23.4047937565    14 
   86     1        11.5002780861        10.0666247257        29.7142750000        -6.6347091852         0.0000000000         0.0000000001         0.0000000000         0.0000000001        23.4047937568    14 
   87     1        10.7583246612        11.7800927641        27.1304250000        -6.6347091852         0.0000000000         0.0000000002         0.0000000000         0.0000000002        23.4047937565    14 
   88     1        14.0971150733         8.1389731824        19.3788750000        -6.6347091852        -0.0000000000         0.0000000000         0.0000000000         0.0000000000        23.4047937562    14 
   89     1        13.3551616484         9.8524412209        16.7950250000        -6.6347091852         0.0000000000         0.0000000001         0.0000000000         0.0000000001        23.4047937568    14 
   90     1        14.0971150733         8.1389731824        24.5465750000        -6.6347091852        -0.0000000000         0.0000000000         0.0000000000         0.0000000000        23.4047937562    14 
   91     1        13.3551616484         9.8524412209        21.9627250000        -6.6347091852         0.0000000000         0.0000000001         0.0000000000         0.0000000001        23.4047937568    14 
   92     1        14.0971150733         8.1389731824        29.7142750000        -6.6347091852        -0.0000000000         0.0000000000         0.0000000000         0.0000000000        23.4047937562    14 
   93     1        13.3551616484         9.8524412209        27.1304250000        -6.6347091852         0.0000000000         0.0000000001         0.0000000000         0.0000000001        23.4047937568    14 
   94     1        16.6939520604         6.2113216392        19.3788750000        -6.6347091851        -0.0000000001         0.0000000000         0.0000000000         0.0000000001        23.4047937556    14 
   95     1        15.9519986355         7.9247896776        16.7950250000        -6.6347091852        -0.0000000000         0.0000000000         0.0000000000         0.0000000001        23.4047937561    14 
   96     1        16.6939520604         6.2113216392        24.5465750000        -6.6347091851        -0.0000000001         0.0000000000         0.0000000000         0.0000000001        23.4047937556    14 
   97     1        15.9519986355         7.9247896776        21.9627250000        -6.6347091852        -0.0000000000         0.0000000000         0.0000000000         0.0000000001        23.4047937561    14 
   98     1        16.6939520604         6.2113216392        29.7142750000        -6.6347091851        -0.0000000001         0.0000000000        -0.0000000000         0.0000000001        23.4047937556    14 
   99     1        15.9519986355         7.9247896776        27.1304250000        -6.6347091852        -0.0000000000         0.0000000000         0.0000000000         0.0000000001        23.4047937561    14 
  100     1        14.4680917857        11.3517257545        19.3788750000        -6.6347091852        -0.0000000000         0.0000000002         0.0000000000         0.0000000002        23.4047937570    14 
  101     1        14.4680917857        11.3517257545        24.5465750000        -6.6347091852        -0.0000000000         0.0000000002         0.0000000000         0.0000000002        23.4047937570    14 
  102     1        14.4680917857        11.3517257545        29.7142750000        -6.6347091852        -0.0000000000         0.0000000002         0.0000000000         0.0000000002        23.4047937570    14 
  103     1        17.0649287729         9.4240742113        19.3788750000        -6.6347091852        -0.0000000000         0.0000000001         0.0000000000         0.0000000001        23.4047937563    14 
  104     1        16.3229753481        11.1375422497        16.7950250000        -6.6347091852         0.0000000000         0.0000000002         0.0000000000         0.0000000002        23.4047937567    14 
  105     1        17.0649287729         9.4240742113        24.5465750000        -6.6347091852        -0.0000000000         0.0000000001         0.0000000000         0.0000000001        23.4047937563    14 
  106     1        16.3229753481        11.1375422497        21.9627250000        -6.6347091852         0.0000000000         0.0000000002         0.0000000000         0.0000000002        23.4047937567    14 
  107     1        17.0649287729         9.4240742113        29.7142750000        -6.6347091852        -0.0000000000         0.0000000001         0.0000000000         0.0000000001        23.4047937563    14 
  108     1        16.3229753481        11.1375422497        27.1304250000        -6.6347091852         0.0000000000         0.0000000002         0.0000000000         0.0000000002        23.4047937567    14 
  109     1        18.9198123351         9.2098907065        16.7950250000        -6.6347091852        -0.0000000001         0.0000000001         0.0000000000         0.0000000001        23.4047937561    14 
  110     1        18.9198123351         9.2098907065        21.9627250000        -6.6347091852        -0.0000000001         0.0000000001         0.0000000000         0.0000000001        23.4047937561    14 
  111     1        18.9198123351         9.2098907065        27.1304250000        -6.6347091852        -0.0000000001         0.0000000001         0.0000000000         0.0000000001        23.4047937561    14 
  112     1        20.0327424724        10.7091752401        19.3788750000        -6.6347091852        -0.0000000002         0.0000000002        -0.0000000000         0.0000000002        23.4047937563    14 
  113     1        20.0327424724        10.7091752401        24.5465750000        -6.6347091852        -0.0000000002         0.0000000002         0.0000000000         0.0000000002        23.4047937563    14 
  114     1        20.0327424724        10.7091752401        29.7142750000        -6.6347091852        -0.0000000002         0.0000000002         0.0000000000         0.0000000002        23.4047937563    14 
  115     1         1.1129301375         1.4992845334         1.2919250000        -6.6347091852         0.0000000002        -0.0000000002         0.0000000000         0.0000000002        23.4047937563    14 
  116     1         1.1129301375         1.4992845334         6.4596250000        -6.6347091852         0.0000000002        -0.0000000002         0.0000000000         0.0000000002        23.4047937563    14 
  117     1         1.1129301375         1.4992845334        11.6273250000        -6.6347091852         0.0000000002        -0.0000000002         0.0000000000         0.0000000002        23.4047937563    14 
  118     1         2.2258602748         2.9985690671         3.8757750000        -6.6347091852         0.0000000001        -0.0000000001         0.0000000000         0.0000000001        23.4047937561    14 
  119     1         2.2258602748         2.9985690671         9.0434750000        -6.6347091852         0.0000000001        -0.0000000001         0.0000000000         0.0000000001        23.4047937561    14 
  120     1         2.2258602748         2.9985690671        14.2111750000        -6.6347091852         0.0000000001        -0.0000000001        -0.0000000000         0.0000000001        23.4047937561    14 
  121     1         4.8226972619         1.0709175238         3.8757750000        -6.6347091852        -0.0000000000        -0.0000000002         0.0000000000         0.0000000002        23.4047937567    14 
  122     1         4.0807438370         2.7843855623         1.2919250000        -6.6347091852         0.0000000000        -0.0000000001         0.0000000000         0.0000000001        23.4047937563    14 
  123     1         4.8226972619         1.0709175238         9.0434750000        -6.6347091852        -0.0000000000        -0.0000000002         0.0000000000         0.0000000002        23.4047937567    14 
  124     1         4.0807438370         2.7843855623         6.4596250000        -6.6347091852         0.0000000000        -0.0000000001         0.0000000000         0.0000000001        23.4047937563    14 
  125     1         4.8226972619         1.0709175238        14.2111750000        -6.6347091852        -0.0000000000        -0.0000000002        -0.0000000000         0.0000000002        23.4047937567    14 
  126     1         4.0807438370         2.7843855623        11.6273250000        -6.6347091852         0.0000000000        -0.0000000001         0.0000000000         0.0000000001        23.4047937563    14 
  127     1         6.6775808242         0.8567340190         1.2919250000        -6.6347091852         0.0000000000        -0.0000000002         0.0000000000         0.0000000002        23.4047937570    14 
  128     1         6.6775808242         0.8567340190         6.4596250000        -6.6347091852         0.0000000000        -0.0000000002        -0.0000000000         0.0000000002        23.4047937570    14 
  129     1         6.6775808242         0.8567340190        11.6273250000        -6.6347091852         0.0000000000        -0.0000000002         0.0000000000         0.0000000002        23.4047937570    14 
  130     1         5.1936739744         4.2836700959         3.8757750000        -6.6347091852         0.0000000000        -0.0000000000         0.0000000000         0.0000000001        23.4047937561    14 
  131     1         4.4517205496         5.9971381344         1.2919250000        -6.6347091851         0.0000000001        -0.0000000000         0.0000000000         0.0000000001        23.4047937556    14 
  132     1         5.1936739744         4.2836700959         9.0434750000        -6.6347091852         0.0000000000        -0.0000000000         0.0000000000         0.0000000001        23.4047937561    14 
  133     1         4.4517205496         5.9971381344         6.4596250000        -6.6347091851         0.0000000001        -0.0000000000         0.0000000000         0.0000000001        23.4047937556    14 
  134     1         5.1936739744         4.2836700959        14.2111750000        -6.6347091852         0.0000000000        -0.0000000000        -0.0000000000         0.0000000001        23.4047937561    14 
  135     1         4.4517205496         5.9971381344        11.6273250000        -6.6347091851         0.0000000001        -0.0000000000         0.0000000000         0.0000000001        23.4047937556    14 
  136     1         7.7905109616         2.3560185527         3.8757750000        -6.6347091852        -0.0000000000        -0.0000000001         0.0000000000         0.0000000001        23.4047937568    14 
  137     1         7.0485575367         4.0694865912         1.2919250000        -6.6347091852         0.0000000000        -0.0000000000         0.0000000000         0.0000000000        23.4047937562    14 
  138     1         7.7905109616         2.3560185527         9.0434750000        -6.6347091852        -0.0000000000        -0.0000000001         0.0000000000         0.0000000001        23.4047937568    14 
  139     1         7.0485575367         4.0694865912         6.4596250000        -6.6347091852         0.0000000000        -0.0000000000         0.0000000000         0.0000000000        23.4047937562    14 
  140     1         7.7905109616         2.3560185527        14.2111750000        -6.6347091852        -0.0000000000        -0.0000000001        -0.0000000000         0.0000000001        23.4047937568    14 
  141     1         7.0485575367         4.0694865912        11.6273250000        -6.6347091852         0.0000000000        -0.0000000000         0.0000000000         0.0000000000        23.4047937562    14 
  142     1        10.3873479487         0.4283670094         3.8757750000        -6.6347091852        -0.0000000000        -0.0000000002         0.0000000000         0.0000000002        23.4047937565    14 