ITEM: TIMESTEP
0
ITEM: NUMBER OF ATOMS
228
ITEM: BOX BOUNDS xy xz yz pp pp pp
0.0000000000000000e+000 2.1145672609652451e+001 7.0485575366524484e+000
0.0000000000000000e+000 1.2208459774000001e+001 2.9999999999999998e-015
0.0000000000000000e+000 3.1006200000000000e+001 2.0000000000000002e-015
ITEM: ATOMS id type x y z c_peatom c_datom[1] c_datom[2] c_datom[3] c_datom[4] c_voratom[1] c_voratom[2] 
    1     1         1.1129301374         1.4992845336        16.7950250000        -6.6347091852         0.0000000000         0.0000000000         0.0000000000         0.0000000000        23.4047937566    14 
    2     1         1.1129301374         1.4992845336        21.9627250000        -6.6347091852         0.0000000000         0.0000000000         0.0000000000         0.0000000000        23.4047937566    14 
    3     1         1.1129301374         1.4992845336        27.1304250000        -6.6347091852         0.0000000000         0.0000000000         0.0000000000         0.0000000000        23.4047937566    14 
    4     1         2.2258602747         2.9985690672        19.3788750000        -6.6347091851         0.0000000000         0.0000000000         0.0000000000         0.0000000000        23.4047937556    14 
    5     1         2.2258602747         2.9985690672        24.5465750000        -6.6347091851        -0.0000000000         0.0000000000         0.0000000000         0.0000000000        23.4047937556    14 
    6     1         2.2258602747         2.9985690672        29.7142750000        -6.6347091851        -0.0000000000         0.0000000000         0.0000000000         0.0000000000        23.4047937556    14 
    7     1         4.8226972619         1.0709175240        19.3788750000        -6.6347091852        -0.0000000000         0.0000000000         0.0000000000         0.0000000000        23.4047937583    14 
    8     1         4.0807438370         2.7843855624        16.7950250000        -6.6347091852         0.0000000000         0.0000000000         0.0000000000         0.0000000000        23.4047937563    12 
    9     1         4.8226972619         1.0709175240        24.5465750000        -6.6347091852         0.0000000000         0.0000000000         0.0000000000         0.0000000000        23.4047937583    14 
   10     1         4.0807438370         2.7843855624        21.9627250000        -6.6347091852         0.0000000000         0.0000000000         0.0000000000         0.0000000000        23.4047937563    12 
   11     1         4.8226972619         1.0709175240        29.7142750000        -6.6347091852         0.0000000000         0.0000000000         0.0000000000         0.0000000000        23.4047937583    14 
   12     1         4.0807438370         2.7843855624        27.1304250000        -6.6347091852         0.0000000000         0.0000000000         0.0000000000         0.0000000000        23.4047937563    12 
   13     1         6.6775808242         0.8567340192        16.7950250000        -6.6347091852         0.0000000000         0.0000000000         0.0000000000         0.0000000000        23.4047937584    14 
   14     1         6.6775808242         0.8567340192        21.9627250000        -6.6347091852         0.0000000000         0.0000000000         0.0000000000         0.0000000000        23.4047937584    14 
   15     1         6.6775808242         0.8567340192        27.1304250000        -6.6347091852         0.0000000000         0.0000000000         0.0000000000         0.0000000000        23.4047937584    14 
   16     1         5.1936739744         4.2836700960        19.3788750000        -6.6347091852         0.0000000000         0.0000000000         0.0000000000         0.0000000000        23.4047937555    14 
   17     1         4.4517205495         5.9971381344        16.7950250000        -6.6347091851         0.0000000000         0.0000000000         0.0000000000         0.0000000000        23.4047937544    12 
   18     1         5.1936739744         4.2836700960        24.5465750000        -6.6347091852         0.0000000000         0.0000000000         0.0000000000         0.0000000000        23.4047937555    14 
   19     1         4.4517205495         5.9971381344        21.9627250000        -6.6347091851         0.0000000000         0.0000000000         0.0000000000         0.0000000000        23.4047937544    12 
   20     1         5.1936739744         4.2836700960        29.7142750000        -6.6347091852         0.0000000000         0.0000000000         0.0000000000         0.0000000000        23.4047937555    14 
   21     1         4.4517205495         5.9971381344        27.1304250000        -6.6347091851         0.0000000000         0.0000000000         0.0000000000         0.0000000000        23.4047937544    12 
   22     1         7.7905109616         2.3560185528        19.3788750000        -6.6347091851         0.0000000000         0.0000000000         0.0000000000         0.0000000000        23.4047937567    12 
   23     1         7.0485575367         4.0694865912        16.7950250000        -6.6347091852         0.0000000000         0.0000000000         0.0000000000         0.0000000000        23.4047937559    12 
   24     1         7.7905109616         2.3560185528        24.5465750000        -6.6347091851         0.0000000000         0.0000000000         0.0000000000         0.0000000000        23.4047937567    12 
   25     1         7.0485575367         4.0694865912        21.9627250000        -6.6347091852         0.0000000000         0.0000000000         0.0000000000         0.0000000000        23.4047937559    12 
   26     1         7.7905109616         2.3560185528        29.7142750000        -6.6347091851        -0.0000000000         0.0000000000         0.0000000000         0.0000000000        23.4047937567    12 
   27     1         7.0485575367         4.0694865912        27.1304250000        -6.6347091852         0.0000000000         0.0000000000         0.0000000000         0.0000000000        23.4047937559    12 
   28     1        10.3873479488         0.4283670096        19.3788750000        -6.6347091852         0.0000000000         0.0000000000         0.0000000000         0.0000000000        23.4047937583    14 
   29     1         9.6453945238         2.1418350480        16.7950250000        -6.6347091852         0.0000000000         0.0000000000         0.0000000000         0.0000000000        23.4047937567    12 
   30     1        10.3873479488         0.4283670096        24.5465750000        -6.6347091852        -0.0000000000         0.0000000000         0.0000000000         0.0000000000        23.4047937583    14 
   31     1         9.6453945238         2.1418350480        21.9627250000        -6.6347091852         0.0000000000         0.0000000000         0.0000000000         0.0000000000        23.4047937567    12 
   32     1        10.3873479488         0.4283670096        29.7142750000        -6.6347091852         0.0000000000         0.0000000000         0.0000000000         0.0000000000        23.4047937583    14 
   33     1         9.6453945238         2.1418350480        27.1304250000        -6.6347091852         0.0000000000         0.0000000000         0.0000000000         0.0000000000        23.4047937567    12 
   34     1        12.2422315110         0.2141835048        16.7950250000        -6.6347091852         0.0000000000         0.0000000000         0.0000000000         0.0000000000        23.4047937575    14 
   35     1        12.2422315110         0.2141835048        21.9627250000        -6.6347091852         0.0000000000         0.0000000000         0.0000000000         0.0000000000        23.4047937575    14 
   36     1        12.2422315110         0.2141835048        27.1304250000        -6.6347091852         0.0000000000         0.0000000000         0.0000000000         0.0000000000        23.4047937575    14 
   37     1         5.5646506868         7.4964226680        19.3788750000        -6.6347091851        -0.0000000000         0.0000000000         0.0000000000         0.0000000000        23.4047937548    14 
   38     1         5.5646506868         7.4964226680        24.5465750000        -6.6347091851         0.0000000000         0.0000000000         0.0000000000         0.0000000000        23.4047937548    14 
   39     1         5.5646506868         7.4964226680        29.7142750000        -6.6347091851         0.0000000000         0.0000000000         0.0000000000         0.0000000000        23.4047937548    14 
   40     1         8.1614876740         5.5687711248        19.3788750000        -6.6347091852         0.0000000000         0.0000000000         0.0000000000         0.0000000000        23.4047937559    12 
   41     1         7.4195342491         7.2822391632        16.7950250000        -6.6347091852        -0.0000000000         0.0000000000         0.0000000000         0.0000000000        23.4047937555    12 
   42     1         8.1614876740         5.5687711248        24.5465750000        -6.6347091852         0.0000000000         0.0000000000         0.0000000000         0.0000000000        23.4047937559    12 
   43     1         7.4195342491         7.2822391632        21.9627250000        -6.6347091852         0.0000000000         0.0000000000         0.0000000000         0.0000000000        23.4047937555    12 
   44     1         8.1614876740         5.5687711248        29.7142750000        -6.6347091852         0.0000000000         0.0000000000         0.0000000000         0.0000000000        23.4047937559    12 
   45     1         7.4195342491         7.2822391632        27.1304250000        -6.6347091852         0.0000000000         0.0000000000         0.0000000000         0.0000000000        23.4047937555    12 
   46     1        10.7583246612         3.6411195816        19.3788750000        -6.6347091852        -0.0000000000         0.0000000000         0.0000000000         0.0000000000        23.4047937559    12 
   47     1        10.0163712363         5.3545876200        16.7950250000        -6.6347091852         0.0000000000         0.0000000000         0.0000000000         0.0000000000        23.4047937559    12 
   48     1        10.7583246612         3.6411195816        24.5465750000        -6.6347091852         0.0000000000         0.0000000000         0.0000000000         0.0000000000        23.4047937559    12 
   49     1        10.0163712363         5.3545876200        21.9627250000        -6.6347091852         0.0000000000         0.0000000000         0.0000000000         0.0000000000        23.4047937559    12 
   50     1        10.7583246612         3.6411195816        29.7142750000        -6.6347091852         0.0000000000         0.0000000000         0.0000000000         0.0000000000        23.4047937559    12 
   51     1        10.0163712363         5.3545876200        27.1304250000        -6.6347091852         0.0000000000         0.0000000000         0.0000000000         0.0000000000        23.4047937559    12 
   52     1        13.3551616484         1.7134680384        19.3788750000        -6.6347091851         0.0000000000         0.0000000000         0.0000000000         0.0000000000        23.4047937555    12 
   53     1        12.6132082235         3.4269360768        16.7950250000        -6.6347091852         0.0000000000         0.0000000000         0.0000000000         0.0000000000        23.4047937555    14 
   54     1        13.3551616484         1.7134680384        24.5465750000        -6.6347091851        -0.0000000000         0.0000000000         0.0000000000         0.0000000000        23.4047937555    12 
   55     1        12.6132082235         3.4269360768        21.9627250000        -6.6347091852         0.0000000000         0.0000000000         0.0000000000         0.0000000000        23.4047937555    14 
   56     1        13.3551616484         1.7134680384        29.7142750000        -6.6347091851         0.0000000000         0.0000000000         0.0000000000         0.0000000000        23.4047937555    12 
   57     1        12.6132082235         3.4269360768        27.1304250000        -6.6347091852         0.0000000000         0.0000000000         0.0000000000         0.0000000000        23.4047937555    14 
   58     1         8.5324643865         8.7815236968        19.3788750000        -6.6347091852         0.0000000000         0.0000000000         0.0000000000         0.0000000000        23.4047937555    14 
   59     1         7.7905109616        10.4949917352        16.7950250000        -6.6347091851         0.0000000000         0.0000000000         0.0000000000         0.0000000000        23.4047937555    12 
   60     1         8.5324643865         8.7815236968        24.5465750000        -6.6347091852         0.0000000000         0.0000000000         0.0000000000         0.0000000000        23.4047937555    14 
   61     1         7.7905109616        10.4949917352        21.9627250000        -6.6347091851        -0.0000000000         0.0000000000         0.0000000000         0.0000000000        23.4047937555    12 
   62     1         8.5324643865         8.7815236968        29.7142750000        -6.6347091852         0.0000000000         0.0000000000         0.0000000000         0.0000000000        23.4047937555    14 
   63     1         7.7905109616        10.4949917352        27.1304250000        -6.6347091851         0.0000000000         0.0000000000         0.0000000000         0.0000000000        23.4047937555    12 
   64     1        11.1293013737         6.8538721536        19.3788750000        -6.6347091852         0.0000000000         0.0000000000         0.0000000000         0.0000000000        23.4047937559    12 
   65     1        10.3873479488         8.5673401920        16.7950250000        -6.6347091852         0.0000000000         0.0000000000         0.0000000000         0.0000000000        23.4047937559    12 
   66     1        11.1293013737         6.8538721536        24.5465750000        -6.6347091852        -0.0000000000         0.0000000000         0.0000000000         0.0000000000        23.4047937559    12 
   67     1        10.3873479488         8.5673401920        21.9627250000        -6.6347091852         0.0000000000         0.0000000000         0.0000000000         0.0000000000        23.4047937559    12 
   68     1        11.1293013737         6.8538721536        29.7142750000        -6.6347091852         0.0000000000         0.0000000000         0.0000000000         0.0000000000        23.4047937559    12 
   69     1        10.3873479488         8.5673401920        27.1304250000        -6.6347091852         0.0000000000         0.0000000000         0.0000000000         0.0000000000        23.4047937559    12 
   70     1        13.7261383608         4.9262206104        19.3788750000        -6.6347091852         0.0000000000         0.0000000000         0.0000000000         0.0000000000        23.4047937555    12 
   71     1        12.9841849359         6.6396886488        16.7950250000        -6.6347091852        -0.0000000000         0.0000000000         0.0000000000         0.0000000000        23.4047937559    12 
   72     1        13.7261383608         4.9262206104        24.5465750000        -6.6347091852        -0.0000000000         0.0000000000         0.0000000000         0.0000000000        23.4047937555    12 
   73     1        12.9841849359         6.6396886488        21.9627250000        -6.6347091852        -0.0000000000         0.0000000000         0.0000000000         0.0000000000        23.4047937559    12 
   74     1        13.7261383608         4.9262206104        29.7142750000        -6.6347091852         0.0000000000         0.0000000000         0.0000000000         0.0000000000        23.4047937555    12 
   75     1        12.9841849359         6.6396886488        27.1304250000        -6.6347091852        -0.0000000000         0.0000000000         0.0000000000         0.0000000000        23.4047937559    12 
   76     1        15.5810219231         4.7120371056        16.7950250000        -6.6347091851        -0.0000000000         0.0000000000         0.0000000000         0.0000000000        23.4047937548    14 
   77     1        15.5810219231         4.7120371056        21.9627250000        -6.6347091851         0.0000000000         0.0000000000         0.0000000000         0.0000000000        23.4047937548    14 
   78     1        15.5810219231         4.7120371056        27.1304250000        -6.6347091851         0.0000000000         0.0000000000         0.0000000000         0.0000000000        23.4047937548    14 
   79     1         8.9034410989        11.9942762688        19.3788750000        -6.6347091852        -0.0000000000         0.0000000000         0.0000000000         0.0000000000        23.4047937575    14 
   80     1         8.9034410989        11.9942762688        24.5465750000        -6.6347091852        -0.0000000000         0.0000000000         0.0000000000         0.0000000000        23.4047937575    14 
   81     1         8.9034410989        11.9942762688        29.7142750000        -6.6347091852         0.0000000000         0.0000000000         0.0000000000         0.0000000000        23.4047937575    14 
   82     1        11.5002780861        10.0666247256        19.3788750000        -6.6347091852         0.0000000000         0.0000000000         0.0000000000         0.0000000000        23.4047937567    12 
   83     1        10.7583246612        11.7800927640        16.7950250000        -6.6347091852         0.0000000000         0.0000000000         0.0000000000         0.0000000000        23.4047937583    14 
   84     1        11.5002780861        10.0666247256        24.5465750000        -6.6347091852         0.0000000000         0.0000000000         0.0000000000         0.0000000000        23.4047937567    12 
   85     1        10.7583246612        11.7800927640        21.9627250000        -6.6347091852         0.0000000000         0.0000000000         0.0000000000         0.0000000000        23.4047937583    14 
   86     1        11.5002780861        10.0666247256        29.7142750000        -6.6347091852         0.0000000000         0.0000000000         0.0000000000         0.0000000000        23.4047937567    12 
   87     1        10.7583246612        11.7800927640        27.1304250000        -6.6347091852         0.0000000000         0.0000000000         0.0000000000         0.0000000000        23.4047937583    14 
   88     1        14.0971150733         8.1389731824        19.3788750000        -6.6347091852        -0.0000000000         0.0000000000         0.0000000000         0.0000000000        23.4047937559    12 
   89     1        13.3551616484         9.8524412208        16.7950250000        -6.6347091851         0.0000000000         0.0000000000         0.0000000000         0.0000000000        23.4047937567    12 
   90     1        14.0971150733         8.1389731824        24.5465750000        -6.6347091852        -0.0000000000         0.0000000000         0.0000000000         0.0000000000        23.4047937559    12 
   91     1        13.3551616484         9.8524412208        21.9627250000        -6.6347091851         0.0000000000         0.0000000000         0.0000000000         0.0000000000        23.4047937567    12 
   92     1        14.0971150733         8.1389731824        29.7142750000        -6.6347091852         0.0000000000         0.0000000000         0.0000000000         0.0000000000        23.4047937559    12 
   93     1        13.3551616484         9.8524412208        27.1304250000        -6.6347091851         0.0000000000         0.0000000000         0.0000000000         0.0000000000        23.4047937567    12 
   94     1        16.6939520605         6.2113216392        19.3788750000        -6.6347091851         0.0000000000         0.0000000000         0.0000000000         0.0000000000        23.4047937544    12 
   95     1        15.9519986356         7.9247896776        16.7950250000        -6.6347091852         0.0000000000         0.0000000000         0.0000000000         0.0000000000        23.4047937555    14 
   96     1        16.6939520605         6.2113216392        24.5465750000        -6.6347091851         0.0000000000         0.0000000000         0.0000000000         0.0000000000        23.4047937544    12 
   97     1        15.9519986356         7.9247896776        21.9627250000        -6.6347091852         0.0000000000         0.0000000000         0.0000000000         0.0000000000        23.4047937555    14 
   98     1        16.6939520605         6.2113216392        29.7142750000        -6.6347091851         0.0000000000         0.0000000000         0.0000000000         0.0000000000        23.4047937544    12 
   99     1        15.9519986356         7.9247896776        27.1304250000        -6.6347091852         0.0000000000         0.0000000000         0.0000000000         0.0000000000        23.4047937555    14 
  100     1        14.4680917858        11.3517257544        19.3788750000        -6.6347091852        -0.0000000000         0.0000000000         0.0000000000         0.0000000000        23.4047937584    14 
  101     1        14.4680917858        11.3517257544        24.5465750000        -6.6347091852         0.0000000000         0.0000000000         0.0000000000         0.0000000000        23.4047937584    14 
  102     1        14.4680917858        11.3517257544        29.7142750000        -6.6347091852         0.0000000000         0.0000000000         0.0000000000         0.0000000000        23.4047937584    14 
  103     1        17.0649287729         9.4240742112        19.3788750000        -6.6347091852         0.0000000000         0.0000000000         0.0000000000         0.0000000000        23.4047937563    12 
  104     1        16.3229753480        11.1375422496        16.7950250000        -6.6347091852         0.0000000000         0.0000000000         0.0000000000         0.0000000000        23.4047937583    14 
  105     1        17.0649287729         9.4240742112        24.5465750000        -6.6347091852         0.0000000000         0.0000000000         0.0000000000         0.0000000000        23.4047937563    12 
  106     1        16.3229753480        11.1375422496        21.9627250000        -6.6347091852         0.0000000000         0.0000000000         0.0000000000         0.0000000000        23.4047937583    14 
  107     1        17.0649287729         9.4240742112        29.7142750000        -6.6347091852         0.0000000000         0.0000000000         0.0000000000         0.0000000000        23.4047937563    12 
  108     1        16.3229753480        11.1375422496        27.1304250000        -6.6347091852         0.0000000000         0.0000000000         0.0000000000         0.0000000000        23.4047937583    14 
  109     1        18.9198123352         9.2098907064        16.7950250000        -6.6347091851        -0.0000000000         0.0000000000         0.0000000000         0.0000000000        23.4047937556    14 
  110     1        18.9198123352         9.2098907064        21.9627250000        -6.6347091851         0.0000000000         0.0000000000         0.0000000000         0.0000000000        23.4047937556    14 
  111     1        18.9198123352         9.2098907064        27.1304250000        -6.6347091851         0.0000000000         0.0000000000         0.0000000000         0.0000000000        23.4047937556    14 
  112     1        20.0327424726        10.7091752400        19.3788750000        -6.6347091852         0.0000000000         0.0000000000         0.0000000000         0.0000000000        23.4047937566    14 
  113     1        20.0327424726        10.7091752400        24.5465750000        -6.6347091852         0.0000000000         0.0000000000         0.0000000000         0.0000000000        23.4047937566    14 
  114     1        20.0327424726        10.7091752400        29.7142750000        -6.6347091852         0.0000000000         0.0000000000         0.0000000000         0.0000000000        23.4047937566    14 
  115     1         1.1129301374         1.4992845336         1.2919250000        -6.6347091852         0.0000000000         0.0000000000         0.0000000000         0.0000000000        23.4047937566    14 
  116     1         1.1129301374         1.4992845336         6.4596250000        -6.6347091852         0.0000000000         0.0000000000         0.0000000000         0.0000000000        23.4047937566    14 
  117     1         1.1129301374         1.4992845336        11.6273250000        -6.6347091852         0.0000000000         0.0000000000         0.0000000000         0.0000000000        23.4047937566    14 
  118     1         2.2258602747         2.9985690672         3.8757750000        -6.6347091851         0.0000000000         0.0000000000         0.0000000000         0.0000000000        23.4047937556    14 
  119     1         2.2258602747         2.9985690672         9.0434750000        -6.6347091851         0.0000000000         0.0000000000         0.0000000000         0.0000000000        23.4047937556    14 
  120     1         2.2258602747         2.9985690672        14.2111750000        -6.6347091851         0.0000000000         0.0000000000         0.0000000000         0.0000000000        23.4047937556    14 
  121     1         4.8226972619         1.0709175240         3.8757750000        -6.6347091852         0.0000000000         0.0000000000         0.0000000000         0.0000000000        23.4047937583    14 
  122     1         4.0807438370         2.7843855624         1.2919250000        -6.6347091852         0.0000000000         0.0000000000         0.0000000000         0.0000000000        23.4047937563    12 
  123     1         4.8226972619         1.0709175240         9.0434750000        -6.6347091852         0.0000000000         0.0000000000         0.0000000000         0.0000000000        23.4047937583    14 
  124     1         4.0807438370         2.7843855624         6.4596250000        -6.6347091852         0.0000000000         0.0000000000         0.0000000000         0.0000000000        23.4047937563    12 
  125     1         4.8226972619         1.0709175240        14.2111750000        -6.6347091852         0.0000000000         0.0000000000         0.0000000000         0.0000000000        23.4047937583    14 
  126     1         4.0807438370         2.7843855624        11.6273250000        -6.6347091852        -0.0000000000         0.0000000000         0.0000000000         0.0000000000        23.4047937563    12 
  127     1         6.6775808242         0.8567340192         1.2919250000        -6.6347091852         0.0000000000         0.0000000000         0.0000000000         0.0000000000        23.4047937584    14 
  128     1         6.6775808242         0.8567340192         6.4596250000        -6.6347091852         0.0000000000         0.0000000000         0.0000000000         0.0000000000        23.4047937584    14 
  129     1         6.6775808242         0.8567340192        11.6273250000        -6.6347091852         0.0000000000         0.0000000000         0.0000000000         0.0000000000        23.4047937584    14 
  130     1         5.1936739744         4.2836700960         3.8757750000        -6.6347091852         0.0000000000         0.0000000000         0.0000000000         0.0000000000        23.4047937555    14 
  131     1         4.4517205495         5.9971381344         1.2919250000        -6.6347091851         0.0000000000         0.0000000000         0.0000000000         0.0000000000        23.4047937544    12 
  132     1         5.1936739744         4.2836700960         9.0434750000        -6.6347091852         0.0000000000         0.0000000000         0.0000000000         0.0000000000        23.4047937555    14 
  133     1         4.4517205495         5.9971381344         6.4596250000        -6.6347091851         0.0000000000         0.0000000000         0.0000000000         0.0000000000        23.4047937544    12 
  134     1         5.1936739744         4.2836700960        14.2111750000        -6.6347091852         0.0000000000         0.0000000000         0.0000000000         0.0000000000        23.4047937555    14 
  135     1         4.4517205495         5.9971381344        11.6273250000        -6.6347091851         0.0000000000         0.0000000000         0.0000000000         0.0000000000        23.4047937544    12 
  136     1         7.7905109616         2.3560185528         3.8757750000        -6.6347091851         0.0000000000         0.0000000000         0.0000000000         0.0000000000        23.4047937567    12 
  137     1         7.0485575367         4.0694865912         1.2919250000        -6.6347091852         0.0000000000         0.0000000000         0.0000000000         0.0000000000        23.4047937559    12 
  138     1         7.7905109616         2.3560185528         9.0434750000        -6.6347091851        -0.0000000000         0.0000000000         0.0000000000         0.0000000000        23.4047937567    12 
  139     1         7.0485575367         4.0694865912         6.4596250000        -6.6347091852         0.0000000000        -0.0000000000         0.0000000000         0.0000000000        23.4047937559    12 
  140     1         7.7905109616         2.3560185528        14.2111750000        -6.6347091851         0.0000000000         0.0000000000         0.0000000000         0.0000000000        23.4047937567    12 
  141     1         7.0485575367         4.0694865912        11.6273250000        -6.6347091852         0.0000000000         0.0000000000         0.0000000000         0.0000000000        23.4047937559    12 
  142     1        10.3873479488         0.4283670096         3.8757750000        -6.6347091852         0.0000000000         0.0000000000         0.0000000000         0.0000000000        23.4047937583    14 