Header

228 atoms
1 atom types

0.0   14.097115073 xlo xhi
0.0   12.208459774 ylo yhi
0.0   31.286200000 zlo zhi

7.048557536652448        0.000000000000003        0.000000000000002        xy xz yz

Atoms

       1    1       1.112930137366178        1.499284533594421       16.974851197204440
       2    1       1.112930137366179        1.499284533594422       22.172506188956369
       3    1       1.112930137366179        1.499284533594422       27.343269369065254
       4    1       2.225860274732355        2.998569067188842       19.586030630934747
       5    1       2.225860274732355        2.998569067188843       24.756793811043629
       6    1       2.225860274732356        2.998569067188843       29.954448802795564
       7    1       4.822697261920100        1.070917523996016       19.586030630934747
       8    1       4.080743837009314        2.784385562389639       16.974851197204440
       9    1       4.822697261920099        1.070917523996017       24.756793811043629
      10    1       4.080743837009315        2.784385562389640       22.172506188956369
      11    1       4.822697261920100        1.070917523996017       29.954448802795564
      12    1       4.080743837009315        2.784385562389639       27.343269369065254
      13    1       6.677580824197058        0.856734019196811       16.974851197204440
      14    1       6.677580824197060        0.856734019196812       22.172506188956369
      15    1       6.677580824197058        0.856734019196811       27.343269369065254
      16    1       5.193673974375489        4.283670095984061       19.586030630934747
      17    1       4.451720549464707        5.997138134377685       16.974851197204440
      18    1       5.193673974375490        4.283670095984061       24.756793811043629
      19    1       4.451720549464708        5.997138134377684       22.172506188956369
      20    1       5.193673974375491        4.283670095984063       29.954448802795564
      21    1       4.451720549464707        5.997138134377684       27.343269369065254
      22    1       7.790510961563234        2.356018552791234       19.586030630934747
      23    1       7.048557536652451        4.069486591184855       16.974851197204440
      24    1       7.790510961563236        2.356018552791234       24.756793811043629
      25    1       7.048557536652452        4.069486591184856       22.172506188956369
      26    1       7.790510961563236        2.356018552791235       29.954448802795564
      27    1       7.048557536652452        4.069486591184856       27.343269369065254
      28    1      10.387347948750978        0.428367009598407       19.586030630934747
      29    1       9.645394523840192        2.141835047992031       16.974851197204440
      30    1      10.387347948750980        0.428367009598408       24.756793811043629
      31    1       9.645394523840192        2.141835047992030       22.172506188956369
      32    1      10.387347948750978        0.428367009598409       29.954448802795564
      33    1       9.645394523840196        2.141835047992030       27.343269369065254
      34    1      12.242231511027937        0.214183504799204       16.974851197204440
      35    1      12.242231511027937        0.214183504799204       22.172506188956369
      36    1      12.242231511027938        0.214183504799204       27.343269369065254
      37    1       5.564650686830881        7.496422667972102       19.586030630934747
      38    1       5.564650686830884        7.496422667972104       24.756793811043629
      39    1       5.564650686830884        7.496422667972105       29.954448802795564
      40    1       8.161487674018629        5.568771124779278       19.586030630934747
      41    1       7.419534249107842        7.282239163172901       16.974851197204440
      42    1       8.161487674018627        5.568771124779279       24.756793811043629
      43    1       7.419534249107843        7.282239163172901       22.172506188956369
      44    1       8.161487674018630        5.568771124779280       29.954448802795564
      45    1       7.419534249107843        7.282239163172902       27.343269369065254
      46    1      10.758324661206370        3.641119581586452       19.586030630934747
      47    1      10.016371236295587        5.354587619980075       16.974851197204440
      48    1      10.758324661206373        3.641119581586453       24.756793811043629
      49    1      10.016371236295587        5.354587619980074       22.172506188956369
      50    1      10.758324661206371        3.641119581586453       29.954448802795564
      51    1      10.016371236295589        5.354587619980076       27.343269369065254
      52    1      13.355161648394112        1.713468038393623       19.586030630934747
      53    1      12.613208223483328        3.426936076787246       16.974851197204440
      54    1      13.355161648394116        1.713468038393624       24.756793811043629
      55    1      12.613208223483328        3.426936076787246       22.172506188956369
      56    1      13.355161648394114        1.713468038393625       29.954448802795564
      57    1      12.613208223483332        3.426936076787248       27.343269369065254
      58    1       8.532464386474020        8.781523696767321       19.586030630934747
      59    1       7.790510961563236       10.494991735160944       16.974851197204440
      60    1       8.532464386474022        8.781523696767323       24.756793811043629
      61    1       7.790510961563236       10.494991735160946       22.172506188956369
      62    1       8.532464386474022        8.781523696767321       29.954448802795564
      63    1       7.790510961563237       10.494991735160946       27.343269369065254
      64    1      11.129301373661759        6.853872153574494       19.586030630934747
      65    1      10.387347948750980        8.567340191968118       16.974851197204440
      66    1      11.129301373661765        6.853872153574494       24.756793811043629
      67    1      10.387347948750980        8.567340191968119       22.172506188956369
      68    1      11.129301373661765        6.853872153574495       29.954448802795564
      69    1      10.387347948750982        8.567340191968121       27.343269369065254
      70    1      13.726138360849507        4.926220610381664       19.586030630934747
      71    1      12.984184935938721        6.639688648775294       16.974851197204440
      72    1      13.726138360849507        4.926220610381665       24.756793811043629
      73    1      12.984184935938721        6.639688648775294       22.172506188956369
      74    1      13.726138360849507        4.926220610381666       29.954448802795564
      75    1      12.984184935938723        6.639688648775293       27.343269369065254
      76    1      15.581021923126467        4.712037105582466       16.974851197204440
      77    1      15.581021923126466        4.712037105582465       22.172506188956369
      78    1      15.581021923126469        4.712037105582468       27.343269369065254
      79    1       8.903441098929411       11.994276268755366       19.586030630934747
      80    1       8.903441098929415       11.994276268755369       24.756793811043629
      81    1       8.903441098929415       11.994276268755369       29.954448802795564
      82    1      11.500278086117156       10.066624725562541       19.586030630934747
      83    1      10.758324661206373       11.780092763956164       16.974851197204440
      84    1      11.500278086117159       10.066624725562541       24.756793811043629
      85    1      10.758324661206373       11.780092763956166       22.172506188956369
      86    1      11.500278086117159       10.066624725562541       29.954448802795564
      87    1      10.758324661206373       11.780092763956166       27.343269369065254
      88    1      14.097115073304897        8.138973182369710       19.586030630934747
      89    1      13.355161648394114        9.852441220763339       16.974851197204440
      90    1      14.097115073304902        8.138973182369710       24.756793811043629
      91    1      13.355161648394114        9.852441220763341       22.172506188956369
      92    1      14.097115073304902        8.138973182369710       29.954448802795564
      93    1      13.355161648394116        9.852441220763342       27.343269369065254
      94    1      16.693952060492645        6.211321639176884       19.586030630934747
      95    1      15.951998635581857        7.924789677570511       16.974851197204440
      96    1      16.693952060492649        6.211321639176885       24.756793811043629
      97    1      15.951998635581857        7.924789677570511       22.172506188956369
      98    1      16.693952060492645        6.211321639176886       29.954448802795564
      99    1      15.951998635581859        7.924789677570514       27.343269369065254
     100    1      14.468091785760292       11.351725754357753       19.586030630934747
     101    1      14.468091785760294       11.351725754357751       24.756793811043629
     102    1      14.468091785760290       11.351725754357751       29.954448802795564
     103    1      17.064928772948040        9.424074211164925       19.586030630934747
     104    1      16.322975348037254       11.137542249558553       16.974851197204440
     105    1      17.064928772948040        9.424074211164925       24.756793811043629
     106    1      16.322975348037254       11.137542249558555       22.172506188956369
     107    1      17.064928772948036        9.424074211164925       29.954448802795564
     108    1      16.322975348037254       11.137542249558555       27.343269369065254
     109    1      18.919812335224997        9.209890706365726       16.974851197204440
     110    1      18.919812335224997        9.209890706365728       22.172506188956369
     111    1      18.919812335224997        9.209890706365728       27.343269369065254
     112    1      20.032742472591170       10.709175239960146       19.586030630934747
     113    1      20.032742472591170       10.709175239960146       24.756793811043629
     114    1      20.032742472591170       10.709175239960146       29.954448802795564
     115    1       1.854883562276961        0.214183504799203        3.942930630934747
     116    1       1.854883562276961        0.214183504799203        9.113693811043632
     117    1       1.854883562276962        0.214183504799204       14.311348802795564
     118    1       3.709767124553920        0.428367009598406        1.331751197204437
     119    1       3.709767124553922        0.428367009598406        6.529406188956370
     120    1       3.709767124553921        0.428367009598407       11.700169369065256
     121    1       4.451720549464703        2.141835047992029        3.942930630934747
     122    1       3.338790412098529        3.641119581586449        1.331751197204437
     123    1       4.451720549464706        2.141835047992030        9.113693811043632
     124    1       3.338790412098530        3.641119581586450        6.529406188956370
     125    1       4.451720549464707        2.141835047992031       14.311348802795564
     126    1       3.338790412098531        3.641119581586450       11.700169369065256
     127    1       7.419534249107842        0.856734019196812        3.942930630934747
     128    1       6.306604111741666        2.356018552791230        1.331751197204437
     129    1       7.419534249107841        0.856734019196812        9.113693811043632
     130    1       6.306604111741666        2.356018552791231        6.529406188956370
     131    1       7.419534249107842        0.856734019196813       14.311348802795564
     132    1       6.306604111741668        2.356018552791232       11.700169369065256
     133    1       9.274417811384801        1.070917523996012        1.331751197204437
     134    1       9.274417811384801        1.070917523996013        6.529406188956370
     135    1       9.274417811384801        1.070917523996015       11.700169369065256
     136    1       4.080743837009313        5.354587619980074        3.942930630934747
     137    1       4.080743837009313        5.354587619980073        9.113693811043632
     138    1       4.080743837009314        5.354587619980075       14.311348802795564
     139    1       7.048557536652448        4.069486591184856        3.942930630934747
     140    1       5.935627399286274        5.568771124779276        1.331751197204437
     141    1       7.048557536652448        4.069486591184854        9.113693811043632
     142    1       5.935627399286276        5.568771124779277        6.529406188956370
     143    1       7.048557536652449        4.069486591184858       14.311348802795564
     144    1       5.935627399286275        5.568771124779277       11.700169369065256
     145    1      10.016371236295585        2.784385562389638        3.942930630934747
     146    1       8.903441098929409        4.283670095984059        1.331751197204437
     147    1      10.016371236295587        2.784385562389638        9.113693811043632
     148    1       8.903441098929409        4.283670095984059        6.529406188956370
     149    1      10.016371236295585        2.784385562389639       14.311348802795564
     150    1       8.903441098929415        4.283670095984059       11.700169369065256
     151    1      12.984184935938725        1.499284533594420        3.942930630934747
     152    1      11.871254798572547        2.998569067188841        1.331751197204437
     153    1      12.984184935938725        1.499284533594420        9.113693811043632
     154    1      11.871254798572547        2.998569067188841        6.529406188956370
     155    1      12.984184935938723        1.499284533594421       14.311348802795562
     156    1      11.871254798572547        2.998569067188841       11.700169369065256
     157    1      14.839068498215681        1.713468038393622        1.331751197204437
     158    1      14.839068498215681        1.713468038393624        6.529406188956370
     159    1      14.839068498215681        1.713468038393624       11.700169369065256
     160    1       6.677580824197056        7.282239163172900        3.942930630934747
     161    1       5.564650686830884        8.781523696767319        1.331751197204437
     162    1       6.677580824197059        7.282239163172901        9.113693811043632
     163    1       5.564650686830885        8.781523696767319        6.529406188956370
     164    1       6.677580824197058        7.282239163172901       14.311348802795564
     165    1       5.564650686830885        8.781523696767321       11.700169369065256
     166    1       9.645394523840192        5.997138134377680        3.942930630934747
     167    1       8.532464386474018        7.496422667972102        1.331751197204437
     168    1       9.645394523840194        5.997138134377681        9.113693811043632
     169    1       8.532464386474018        7.496422667972102        6.529406188956370
     170    1       9.645394523840194        5.997138134377682       14.311348802795564
     171    1       8.532464386474022        7.496422667972102       11.700169369065256
     172    1      12.613208223483332        4.712037105582461        3.942930630934747
     173    1      11.500278086117154        6.211321639176884        1.331751197204437
     174    1      12.613208223483333        4.712037105582462        9.113693811043632
     175    1      11.500278086117154        6.211321639176884        6.529406188956370
     176    1      12.613208223483332        4.712037105582463       14.311348802795564
     177    1      11.500278086117154        6.211321639176885       11.700169369065256
     178    1      15.581021923126471        3.426936076787246        3.942930630934747
     179    1      14.468091785760286        4.926220610381665        1.331751197204437
     180    1      15.581021923126473        3.426936076787248        9.113693811043632
     181    1      14.468091785760286        4.926220610381665        6.529406188956370
     182    1      15.581021923126471        3.426936076787249       14.311348802795562
     183    1      14.468091785760292        4.926220610381667       11.700169369065256
     184    1       6.306604111741665       10.494991735160941        3.942930630934747
     185    1       6.306604111741667       10.494991735160943        9.113693811043632
     186    1       6.306604111741668       10.494991735160941       14.311348802795564
     187    1       9.274417811384801        9.209890706365721        3.942930630934747
     188    1       8.161487674018627       10.709175239960148        1.331751197204437
     189    1       9.274417811384803        9.209890706365723        9.113693811043632
     190    1       8.161487674018627       10.709175239960146        6.529406188956370
     191    1       9.274417811384803        9.209890706365721       14.311348802795564
     192    1       8.161487674018629       10.709175239960150       11.700169369065256
     193    1      12.242231511027942        7.924789677570503        3.942930630934747
     194    1      11.129301373661759        9.424074211164930        1.331751197204437
     195    1      12.242231511027942        7.924789677570506        9.113693811043632
     196    1      11.129301373661757        9.424074211164930        6.529406188956370
     197    1      12.242231511027940        7.924789677570506       14.311348802795564
     198    1      11.129301373661763        9.424074211164932       11.700169369065256
     199    1      15.210045210671076        6.639688648775285        3.942930630934747
     200    1      14.097115073304895        8.138973182369710        1.331751197204437
     201    1      15.210045210671076        6.639688648775289        9.113693811043632
     202    1      14.097115073304895        8.138973182369710        6.529406188956370
     203    1      15.210045210671074        6.639688648775288       14.311348802795564
     204    1      14.097115073304899        8.138973182369714       11.700169369065256
     205    1      17.064928772948033        6.853872153574494        1.331751197204437
     206    1      17.064928772948033        6.853872153574494        6.529406188956370
     207    1      17.064928772948029        6.853872153574496       11.700169369065256
     208    1      11.871254798572547       11.137542249558551        3.942930630934747
     209    1      11.871254798572549       11.137542249558551        9.113693811043632
     210    1      11.871254798572549       11.137542249558550       14.311348802795564
     211    1      14.839068498215685        9.852441220763332        3.942930630934747
     212    1      13.726138360849506       11.351725754357751        1.331751197204437
     213    1      14.839068498215687        9.852441220763335        9.113693811043632
     214    1      13.726138360849506       11.351725754357751        6.529406188956370
     215    1      14.839068498215683        9.852441220763335       14.311348802795564
     216    1      13.726138360849507       11.351725754357755       11.700169369065256
     217    1      17.806882197858819        8.567340191968114        3.942930630934747
     218    1      16.693952060492641       10.066624725562535        1.331751197204437
     219    1      17.806882197858819        8.567340191968118        9.113693811043632
     220    1      16.693952060492641       10.066624725562535        6.529406188956370
     221    1      17.806882197858815        8.567340191968116       14.311348802795564
     222    1      16.693952060492641       10.066624725562537       11.700169369065256
     223    1      17.435905485403428       11.780092763956160        3.942930630934747
     224    1      17.435905485403428       11.780092763956160        9.113693811043632
     225    1      17.435905485403424       11.780092763956159       14.311348802795564
     226    1      19.290789047680384       11.994276268755360        1.331751197204437
     227    1      19.290789047680384       11.994276268755360        6.529406188956370
     228    1      19.290789047680384       11.994276268755360       11.700169369065256
