ITEM: TIMESTEP
0
ITEM: NUMBER OF ATOMS
228
ITEM: BOX BOUNDS xy xz yz pp pp pp
0.0000000000000000e+000 2.1145672609652451e+001 7.0485575366524484e+000
0.0000000000000000e+000 1.2208459774000001e+001 2.9999999999999998e-015
0.0000000000000000e+000 3.1286200000000001e+001 2.0000000000000002e-015
ITEM: ATOMS id type x y z c_peatom c_datom[1] c_datom[2] c_datom[3] c_datom[4] c_voratom[1] c_voratom[2] 
    1     1         1.1129301374         1.4992845336        16.9748511972        -6.6043368838         0.0000000000         0.0000000000         0.0000000000         0.0000000000        23.8813030069    14 
    2     1         1.1129301374         1.4992845336        22.1725061890        -6.6324003541         0.0000000000         0.0000000000         0.0000000000         0.0000000000        23.4186670655    14 
    3     1         1.1129301374         1.4992845336        27.3432693691        -6.6258827581         0.0000000000         0.0000000000         0.0000000000         0.0000000000        23.5404615399    14 
    4     1         2.2258602747         2.9985690672        19.5860306309        -6.6165999545         0.0000000000         0.0000000000         0.0000000000         0.0000000000        23.5404615389    14 
    5     1         2.2258602747         2.9985690672        24.7567938110        -6.6324003541        -0.0000000000         0.0000000000         0.0000000000         0.0000000000        23.4186670645    14 
    6     1         2.2258602747         2.9985690672        29.9544488028        -6.5613191542        -0.0000000000         0.0000000000         0.0000000000         0.0000000000        23.9068096398    14 
    7     1         4.8226972619         1.0709175240        19.5860306309        -6.6104456367        -0.0000000000         0.0000000000         0.0000000000         0.0000000000        23.5404615416    14 
    8     1         4.0807438370         2.7843855624        16.9748511972        -6.5031121061         0.0000000000         0.0000000000         0.0000000000         0.0000000000        23.8850485197    14 
    9     1         4.8226972619         1.0709175240        24.7567938110        -6.6324003542         0.0000000000         0.0000000000         0.0000000000         0.0000000000        23.4186670672    14 
   10     1         4.0807438370         2.7843855624        22.1725061890        -6.6324003541         0.0000000000         0.0000000000         0.0000000000         0.0000000000        23.4186670652    12 
   11     1         4.8226972619         1.0709175240        29.9544488028        -6.5551637738         0.0000000000         0.0000000000         0.0000000000         0.0000000000        23.9068096425    14 
   12     1         4.0807438370         2.7843855624        27.3432693691        -6.6106037781         0.0000000000         0.0000000000         0.0000000000         0.0000000000        23.5404615396    12 
   13     1         6.6775808242         0.8567340192        16.9748511972        -6.4976345722         0.0000000000         0.0000000000         0.0000000000         0.0000000000        23.8850485219    15 
   14     1         6.6775808242         0.8567340192        22.1725061890        -6.6324003542         0.0000000000         0.0000000000         0.0000000000         0.0000000000        23.4186670673    14 
   15     1         6.6775808242         0.8567340192        27.3432693691        -6.6051269664         0.0000000000         0.0000000000         0.0000000000         0.0000000000        23.5404615417    14 
   16     1         5.1936739744         4.2836700960        19.5860306309        -6.6049142587         0.0000000000         0.0000000000         0.0000000000         0.0000000000        23.5404615388    14 
   17     1         4.4517205495         5.9971381344        16.9748511972        -6.4976345721         0.0000000000         0.0000000000         0.0000000000         0.0000000000        23.8850485182    14 
   18     1         5.1936739744         4.2836700960        24.7567938110        -6.6324003541         0.0000000000         0.0000000000         0.0000000000         0.0000000000        23.4186670645    14 
   19     1         4.4517205495         5.9971381344        22.1725061890        -6.6324003540         0.0000000000         0.0000000000         0.0000000000         0.0000000000        23.4186670633    12 
   20     1         5.1936739744         4.2836700960        29.9544488028        -6.5833647693         0.0000000000         0.0000000000         0.0000000000         0.0000000000        23.8813030060    14 
   21     1         4.4517205495         5.9971381344        27.3432693691        -6.6051269663         0.0000000000         0.0000000000         0.0000000000         0.0000000000        23.5404615377    12 
   22     1         7.7905109616         2.3560185528        19.5860306309        -6.6049142587         0.0000000000         0.0000000000         0.0000000000         0.0000000000        23.5404615400    12 
   23     1         7.0485575367         4.0694865912        16.9748511972        -6.4740180166         0.0000000000         0.0000000000         0.0000000000         0.0000000000        23.8581179718    16 
   24     1         7.7905109616         2.3560185528        24.7567938110        -6.6324003541         0.0000000000         0.0000000000         0.0000000000         0.0000000000        23.4186670657    12 
   25     1         7.0485575367         4.0694865912        22.1725061890        -6.6324003541         0.0000000000         0.0000000000         0.0000000000         0.0000000000        23.4186670649    12 
   26     1         7.7905109616         2.3560185528        29.9544488028        -6.5833647693        -0.0000000000         0.0000000000         0.0000000000         0.0000000000        23.8813030075    13 
   27     1         7.0485575367         4.0694865912        27.3432693691        -6.6036428360         0.0000000000         0.0000000000         0.0000000000         0.0000000000        23.5404615393    12 
   28     1        10.3873479488         0.4283670096        19.5860306309        -6.6165999545         0.0000000000         0.0000000000         0.0000000000         0.0000000000        23.5404615416    14 
   29     1         9.6453945238         2.1418350480        16.9748511972        -6.5031121061         0.0000000000         0.0000000000         0.0000000000         0.0000000000        23.8850485206    14 
   30     1        10.3873479488         0.4283670096        24.7567938110        -6.6324003542        -0.0000000000         0.0000000000         0.0000000000         0.0000000000        23.4186670672    14 
   31     1         9.6453945238         2.1418350480        22.1725061890        -6.6324003541         0.0000000000         0.0000000000         0.0000000000         0.0000000000        23.4186670657    12 
   32     1        10.3873479488         0.4283670096        29.9544488028        -6.5613191543         0.0000000000        -0.0000000000         0.0000000000         0.0000000000        23.9068096427    14 
   33     1         9.6453945238         2.1418350480        27.3432693691        -6.6106037781         0.0000000000         0.0000000000         0.0000000000         0.0000000000        23.5404615401    12 
   34     1        12.2422315110         0.2141835048        16.9748511972        -6.6043368838         0.0000000000         0.0000000000         0.0000000000         0.0000000000        23.8813030081    15 
   35     1        12.2422315110         0.2141835048        22.1725061890        -6.6324003542         0.0000000000         0.0000000000         0.0000000000         0.0000000000        23.4186670664    14 
   36     1        12.2422315110         0.2141835048        27.3432693691        -6.6258827581         0.0000000000         0.0000000000         0.0000000000         0.0000000000        23.5404615408    14 
   37     1         5.5646506868         7.4964226680        19.5860306309        -6.6104456366         0.0000000000         0.0000000000         0.0000000000         0.0000000000        23.5404615381    14 
   38     1         5.5646506868         7.4964226680        24.7567938110        -6.6324003541         0.0000000000         0.0000000000         0.0000000000         0.0000000000        23.4186670637    14 
   39     1         5.5646506868         7.4964226680        29.9544488028        -6.5551637737         0.0000000000         0.0000000000         0.0000000000         0.0000000000        23.9068096391    14 
   40     1         8.1614876740         5.5687711248        19.5860306309        -6.6049142587        -0.0000000000         0.0000000000         0.0000000000         0.0000000000        23.5404615393    12 
   41     1         7.4195342491         7.2822391632        16.9748511972        -6.5031121061         0.0000000000         0.0000000000         0.0000000000         0.0000000000        23.8850485190    14 
   42     1         8.1614876740         5.5687711248        24.7567938110        -6.6324003541         0.0000000000         0.0000000000         0.0000000000         0.0000000000        23.4186670649    12 
   43     1         7.4195342491         7.2822391632        22.1725061890        -6.6324003541        -0.0000000000         0.0000000000         0.0000000000         0.0000000000        23.4186670644    12 
   44     1         8.1614876740         5.5687711248        29.9544488028        -6.5833647693         0.0000000000         0.0000000000         0.0000000000         0.0000000000        23.8813030065    13 
   45     1         7.4195342491         7.2822391632        27.3432693691        -6.6106037781         0.0000000000         0.0000000000         0.0000000000         0.0000000000        23.5404615388    12 
   46     1        10.7583246612         3.6411195816        19.5860306309        -6.6104456366        -0.0000000000         0.0000000000         0.0000000000         0.0000000000        23.5404615393    12 
   47     1        10.0163712363         5.3545876200        16.9748511972        -6.4976345722         0.0000000000         0.0000000000         0.0000000000         0.0000000000        23.8850485195    14 
   48     1        10.7583246612         3.6411195816        24.7567938110        -6.6324003541         0.0000000000         0.0000000000         0.0000000000         0.0000000000        23.4186670649    12 
   49     1        10.0163712363         5.3545876200        22.1725061890        -6.6324003541         0.0000000000         0.0000000000         0.0000000000         0.0000000000        23.4186670649    12 
   50     1        10.7583246612         3.6411195816        29.9544488028        -6.5551637737         0.0000000000         0.0000000000         0.0000000000         0.0000000000        23.9068096403    13 
   51     1        10.0163712363         5.3545876200        27.3432693691        -6.6051269663         0.0000000000         0.0000000000         0.0000000000         0.0000000000        23.5404615393    12 
   52     1        13.3551616484         1.7134680384        19.5860306309        -6.6258827580         0.0000000000         0.0000000000         0.0000000000         0.0000000000        23.5404615388    12 
   53     1        12.6132082235         3.4269360768        16.9748511972        -6.5613191542         0.0000000000         0.0000000000         0.0000000000         0.0000000000        23.9068096398    14 
   54     1        13.3551616484         1.7134680384        24.7567938110        -6.6324003541         0.0000000000         0.0000000000         0.0000000000         0.0000000000        23.4186670645    12 
   55     1        12.6132082235         3.4269360768        22.1725061890        -6.6324003541         0.0000000000         0.0000000000         0.0000000000         0.0000000000        23.4186670645    14 
   56     1        13.3551616484         1.7134680384        29.9544488028        -6.6043368837         0.0000000000         0.0000000000         0.0000000000         0.0000000000        23.8813030068    13 
   57     1        12.6132082235         3.4269360768        27.3432693691        -6.6165999545         0.0000000000         0.0000000000         0.0000000000         0.0000000000        23.5404615388    14 
   58     1         8.5324643865         8.7815236968        19.5860306309        -6.6165999545         0.0000000000         0.0000000000         0.0000000000         0.0000000000        23.5404615388    14 
   59     1         7.7905109616        10.4949917352        16.9748511972        -6.6043368837         0.0000000000         0.0000000000         0.0000000000         0.0000000000        23.8813030068    13 
   60     1         8.5324643865         8.7815236968        24.7567938110        -6.6324003541         0.0000000000         0.0000000000         0.0000000000         0.0000000000        23.4186670645    14 
   61     1         7.7905109616        10.4949917352        22.1725061890        -6.6324003541        -0.0000000000         0.0000000000         0.0000000000         0.0000000000        23.4186670645    12 
   62     1         8.5324643865         8.7815236968        29.9544488028        -6.5613191542         0.0000000000         0.0000000000         0.0000000000         0.0000000000        23.9068096398    14 
   63     1         7.7905109616        10.4949917352        27.3432693691        -6.6258827580         0.0000000000         0.0000000000         0.0000000000         0.0000000000        23.5404615388    12 
   64     1        11.1293013737         6.8538721536        19.5860306309        -6.6051269663         0.0000000000         0.0000000000         0.0000000000         0.0000000000        23.5404615393    12 
   65     1        10.3873479488         8.5673401920        16.9748511972        -6.5551637737         0.0000000000         0.0000000000         0.0000000000         0.0000000000        23.9068096403    13 
   66     1        11.1293013737         6.8538721536        24.7567938110        -6.6324003541        -0.0000000000         0.0000000000         0.0000000000         0.0000000000        23.4186670649    12 
   67     1        10.3873479488         8.5673401920        22.1725061890        -6.6324003541         0.0000000000         0.0000000000         0.0000000000         0.0000000000        23.4186670649    12 
   68     1        11.1293013737         6.8538721536        29.9544488028        -6.4976345722         0.0000000000         0.0000000000         0.0000000000         0.0000000000        23.8850485195    14 
   69     1        10.3873479488         8.5673401920        27.3432693691        -6.6104456366         0.0000000000         0.0000000000         0.0000000000         0.0000000000        23.5404615393    12 
   70     1        13.7261383608         4.9262206104        19.5860306309        -6.6106037781         0.0000000000         0.0000000000         0.0000000000         0.0000000000        23.5404615388    12 
   71     1        12.9841849359         6.6396886488        16.9748511972        -6.5833647693        -0.0000000000         0.0000000000         0.0000000000         0.0000000000        23.8813030065    13 
   72     1        13.7261383608         4.9262206104        24.7567938110        -6.6324003541        -0.0000000000         0.0000000000         0.0000000000         0.0000000000        23.4186670644    12 
   73     1        12.9841849359         6.6396886488        22.1725061890        -6.6324003541        -0.0000000000         0.0000000000         0.0000000000         0.0000000000        23.4186670649    12 
   74     1        13.7261383608         4.9262206104        29.9544488028        -6.5031121061         0.0000000000         0.0000000000         0.0000000000         0.0000000000        23.8850485190    14 
   75     1        12.9841849359         6.6396886488        27.3432693691        -6.6049142587        -0.0000000000         0.0000000000         0.0000000000         0.0000000000        23.5404615393    12 
   76     1        15.5810219231         4.7120371056        16.9748511972        -6.5551637737        -0.0000000000         0.0000000000         0.0000000000         0.0000000000        23.9068096391    14 
   77     1        15.5810219231         4.7120371056        22.1725061890        -6.6324003541        -0.0000000000         0.0000000000         0.0000000000         0.0000000000        23.4186670637    14 
   78     1        15.5810219231         4.7120371056        27.3432693691        -6.6104456366         0.0000000000         0.0000000000         0.0000000000         0.0000000000        23.5404615381    14 
   79     1         8.9034410989        11.9942762688        19.5860306309        -6.6258827581        -0.0000000000         0.0000000000         0.0000000000         0.0000000000        23.5404615408    14 
   80     1         8.9034410989        11.9942762688        24.7567938110        -6.6324003542         0.0000000000         0.0000000000         0.0000000000         0.0000000000        23.4186670664    14 
   81     1         8.9034410989        11.9942762688        29.9544488028        -6.6043368838         0.0000000000         0.0000000000         0.0000000000         0.0000000000        23.8813030081    15 
   82     1        11.5002780861        10.0666247256        19.5860306309        -6.6106037781         0.0000000000         0.0000000000         0.0000000000         0.0000000000        23.5404615401    12 
   83     1        10.7583246612        11.7800927640        16.9748511972        -6.5613191543         0.0000000000         0.0000000000         0.0000000000         0.0000000000        23.9068096427    14 
   84     1        11.5002780861        10.0666247256        24.7567938110        -6.6324003541         0.0000000000         0.0000000000         0.0000000000         0.0000000000        23.4186670657    12 
   85     1        10.7583246612        11.7800927640        22.1725061890        -6.6324003542         0.0000000000         0.0000000000         0.0000000000         0.0000000000        23.4186670672    14 
   86     1        11.5002780861        10.0666247256        29.9544488028        -6.5031121061         0.0000000000         0.0000000000         0.0000000000         0.0000000000        23.8850485206    14 
   87     1        10.7583246612        11.7800927640        27.3432693691        -6.6165999545         0.0000000000         0.0000000000         0.0000000000         0.0000000000        23.5404615416    14 
   88     1        14.0971150733         8.1389731824        19.5860306309        -6.6036428360         0.0000000000         0.0000000000         0.0000000000         0.0000000000        23.5404615393    12 
   89     1        13.3551616484         9.8524412208        16.9748511972        -6.5833647693         0.0000000000         0.0000000000         0.0000000000         0.0000000000        23.8813030075    13 
   90     1        14.0971150733         8.1389731824        24.7567938110        -6.6324003541        -0.0000000000         0.0000000000         0.0000000000         0.0000000000        23.4186670649    12 
   91     1        13.3551616484         9.8524412208        22.1725061890        -6.6324003541         0.0000000000         0.0000000000         0.0000000000         0.0000000000        23.4186670657    12 
   92     1        14.0971150733         8.1389731824        29.9544488028        -6.4740180166         0.0000000000         0.0000000000         0.0000000000         0.0000000000        23.8581179718    16 
   93     1        13.3551616484         9.8524412208        27.3432693691        -6.6049142587         0.0000000000         0.0000000000         0.0000000000         0.0000000000        23.5404615400    12 
   94     1        16.6939520605         6.2113216392        19.5860306309        -6.6051269663         0.0000000000         0.0000000000         0.0000000000         0.0000000000        23.5404615377    12 
   95     1        15.9519986356         7.9247896776        16.9748511972        -6.5833647693         0.0000000000         0.0000000000         0.0000000000         0.0000000000        23.8813030060    14 
   96     1        16.6939520605         6.2113216392        24.7567938110        -6.6324003540         0.0000000000         0.0000000000         0.0000000000         0.0000000000        23.4186670633    12 
   97     1        15.9519986356         7.9247896776        22.1725061890        -6.6324003541         0.0000000000         0.0000000000         0.0000000000         0.0000000000        23.4186670645    14 
   98     1        16.6939520605         6.2113216392        29.9544488028        -6.4976345721         0.0000000000         0.0000000000         0.0000000000         0.0000000000        23.8850485182    14 
   99     1        15.9519986356         7.9247896776        27.3432693691        -6.6049142587         0.0000000000         0.0000000000         0.0000000000         0.0000000000        23.5404615388    14 
  100     1        14.4680917858        11.3517257544        19.5860306309        -6.6051269664        -0.0000000000         0.0000000000         0.0000000000         0.0000000000        23.5404615417    14 
  101     1        14.4680917858        11.3517257544        24.7567938110        -6.6324003542        -0.0000000000         0.0000000000         0.0000000000         0.0000000000        23.4186670673    14 
  102     1        14.4680917858        11.3517257544        29.9544488028        -6.4976345722         0.0000000000         0.0000000000         0.0000000000         0.0000000000        23.8850485219    15 
  103     1        17.0649287729         9.4240742112        19.5860306309        -6.6106037781         0.0000000000         0.0000000000         0.0000000000         0.0000000000        23.5404615396    12 
  104     1        16.3229753480        11.1375422496        16.9748511972        -6.5551637738        -0.0000000000         0.0000000000         0.0000000000         0.0000000000        23.9068096425    14 
  105     1        17.0649287729         9.4240742112        24.7567938110        -6.6324003541         0.0000000000         0.0000000000         0.0000000000         0.0000000000        23.4186670652    12 
  106     1        16.3229753480        11.1375422496        22.1725061890        -6.6324003542         0.0000000000         0.0000000000         0.0000000000         0.0000000000        23.4186670672    14 
  107     1        17.0649287729         9.4240742112        29.9544488028        -6.5031121061         0.0000000000         0.0000000000         0.0000000000         0.0000000000        23.8850485197    14 
  108     1        16.3229753480        11.1375422496        27.3432693691        -6.6104456367         0.0000000000         0.0000000000         0.0000000000         0.0000000000        23.5404615416    14 
  109     1        18.9198123352         9.2098907064        16.9748511972        -6.5613191542        -0.0000000000         0.0000000000         0.0000000000         0.0000000000        23.9068096398    14 
  110     1        18.9198123352         9.2098907064        22.1725061890        -6.6324003541         0.0000000000         0.0000000000         0.0000000000         0.0000000000        23.4186670645    14 
  111     1        18.9198123352         9.2098907064        27.3432693691        -6.6165999545         0.0000000000         0.0000000000         0.0000000000         0.0000000000        23.5404615389    14 
  112     1        20.0327424726        10.7091752400        19.5860306309        -6.6258827581         0.0000000000         0.0000000000         0.0000000000         0.0000000000        23.5404615399    14 
  113     1        20.0327424726        10.7091752400        24.7567938110        -6.6324003541         0.0000000000         0.0000000000         0.0000000000         0.0000000000        23.4186670655    14 
  114     1        20.0327424726        10.7091752400        29.9544488028        -6.6043368838         0.0000000000         0.0000000000         0.0000000000         0.0000000000        23.8813030069    14 
  115     1         1.8548835623         0.2141835048         3.9429306309        -6.6258827581         0.0000000000         0.0000000000         0.0000000000         0.0000000000        23.5404615407    14 
  116     1         1.8548835623         0.2141835048         9.1136938110        -6.6324003542         0.0000000000         0.0000000000         0.0000000000         0.0000000000        23.4186670664    14 
  117     1         1.8548835623         0.2141835048        14.3113488028        -6.6043368838         0.0000000000         0.0000000000         0.0000000000         0.0000000000        23.8813030083    15 
  118     1         3.7097671246         0.4283670096         1.3317511972        -6.5613191542         0.0000000000         0.0000000000         0.0000000000         0.0000000000        23.9068096421    14 
  119     1         3.7097671246         0.4283670096         6.5294061890        -6.6324003542         0.0000000000         0.0000000000         0.0000000000         0.0000000000        23.4186670667    14 
  120     1         3.7097671246         0.4283670096        11.7001693691        -6.6165999545         0.0000000000         0.0000000000         0.0000000000         0.0000000000        23.5404615411    14 
  121     1         4.4517205495         2.1418350480         3.9429306309        -6.6106037781         0.0000000000         0.0000000000         0.0000000000         0.0000000000        23.5404615396    14 
  122     1         3.3387904121         3.6411195816         1.3317511972        -6.5551637737         0.0000000000         0.0000000000         0.0000000000         0.0000000000        23.9068096389    13 
  123     1         4.4517205495         2.1418350480         9.1136938110        -6.6324003541         0.0000000000         0.0000000000         0.0000000000         0.0000000000        23.4186670652    14 
  124     1         3.3387904121         3.6411195816         6.5294061890        -6.6324003541         0.0000000000         0.0000000000         0.0000000000         0.0000000000        23.4186670632    12 
  125     1         4.4517205495         2.1418350480        14.3113488028        -6.5031121061         0.0000000000         0.0000000000         0.0000000000         0.0000000000        23.8850485201    15 
  126     1         3.3387904121         3.6411195816        11.7001693691        -6.6104456366         0.0000000000         0.0000000000         0.0000000000         0.0000000000        23.5404615376    12 
  127     1         7.4195342491         0.8567340192         3.9429306309        -6.6051269664         0.0000000000         0.0000000000         0.0000000000         0.0000000000        23.5404615417    14 
  128     1         6.3066041117         2.3560185528         1.3317511972        -6.5833647693         0.0000000000         0.0000000000         0.0000000000         0.0000000000        23.8813030075    13 
  129     1         7.4195342491         0.8567340192         9.1136938110        -6.6324003542         0.0000000000         0.0000000000         0.0000000000         0.0000000000        23.4186670673    14 
  130     1         6.3066041117         2.3560185528         6.5294061890        -6.6324003541         0.0000000000         0.0000000000         0.0000000000         0.0000000000        23.4186670657    12 
  131     1         7.4195342491         0.8567340192        14.3113488028        -6.4976345722         0.0000000000         0.0000000000         0.0000000000         0.0000000000        23.8850485219    15 
  132     1         6.3066041117         2.3560185528        11.7001693691        -6.6049142587         0.0000000000         0.0000000000         0.0000000000         0.0000000000        23.5404615400    12 
  133     1         9.2744178114         1.0709175240         1.3317511972        -6.5551637738         0.0000000000         0.0000000000         0.0000000000         0.0000000000        23.9068096425    14 
  134     1         9.2744178114         1.0709175240         6.5294061890        -6.6324003542         0.0000000000         0.0000000000         0.0000000000         0.0000000000        23.4186670672    14 
  135     1         9.2744178114         1.0709175240        11.7001693691        -6.6104456367         0.0000000000         0.0000000000         0.0000000000         0.0000000000        23.5404615416    14 
  136     1         4.0807438370         5.3545876200         3.9429306309        -6.6051269663         0.0000000000         0.0000000000         0.0000000000         0.0000000000        23.5404615379    14 
  137     1         4.0807438370         5.3545876200         9.1136938110        -6.6324003541        -0.0000000000         0.0000000000         0.0000000000         0.0000000000        23.4186670635    14 
  138     1         4.0807438370         5.3545876200        14.3113488028        -6.4976345721         0.0000000000         0.0000000000         0.0000000000         0.0000000000        23.8850485181    15 
  139     1         7.0485575367         4.0694865912         3.9429306309        -6.6036428360         0.0000000000         0.0000000000         0.0000000000         0.0000000000        23.5404615393    12 
  140     1         5.9356273993         5.5687711248         1.3317511972        -6.5833647693         0.0000000000         0.0000000000         0.0000000000         0.0000000000        23.8813030060    13 
  141     1         7.0485575367         4.0694865912         9.1136938110        -6.6324003541         0.0000000000         0.0000000000         0.0000000000         0.0000000000        23.4186670649    12 
  142     1         5.9356273993         5.5687711248         6.5294061890        -6.6324003541         0.0000000000         0.0000000000         0.0000000000         0.0000000000        23.4186670644    12 