ITEM: TIMESTEP
24
ITEM: NUMBER OF ATOMS
228
ITEM: BOX BOUNDS xy xz yz pp pp pp
0.0000000000000000e+000 2.1145672609652451e+001 7.0485575366524484e+000
0.0000000000000000e+000 1.2208459774000001e+001 2.9999999999999998e-015
0.0000000000000000e+000 3.1286200000000001e+001 2.0000000000000002e-015
ITEM: ATOMS id type x y z c_peatom c_datom[1] c_datom[2] c_datom[3] c_datom[4] c_voratom[1] c_voratom[2] 
    1     1         1.0528021374         1.5567517588        16.9349511806        -6.6110989599        -0.0601279999         0.0574672253        -0.0399000166         0.0922489549        23.7707098418    14 
    2     1         1.0999548553         1.4994475026        22.1619228741        -6.6338287960        -0.0129752821         0.0001629690        -0.0105833148         0.0167448815        23.4556857057    14 
    3     1         1.0834336172         1.5114252612        27.3811196739        -6.6256899612        -0.0294965202         0.0121407276         0.0378503048         0.0494983590        23.5128275439    13 
    4     1         2.1882109856         3.0125404918        19.5762132125        -6.6149519529        -0.0376492892         0.0139714246        -0.0098174184         0.0413406747        23.4316179327    14 
    5     1         2.2125640921         2.9928546342        24.7617346032        -6.6339413309        -0.0132961827        -0.0057144330         0.0049407922         0.0152923068        23.4344898069    13 
    6     1         2.1646933964         3.0405156039        29.9420624624        -6.5706166039        -0.0611668784         0.0419465368        -0.0123863404         0.0751952152        23.9348086355    13 
    7     1         4.8131864058         1.0900727260        19.6053728632        -6.5894947485        -0.0095108561         0.0191552020         0.0193422323         0.0288357434        23.2656216817    14 
    8     1         4.0753486048         2.8096077129        17.0585138362        -6.5600767531        -0.0053952322         0.0252221505         0.0836626390         0.0875482871        24.2562265668    15 
    9     1         4.8179627685         1.0802022709        24.7626005420        -6.6331037459        -0.0047344934         0.0092847469         0.0058067310         0.0119306361        23.4286322156    14 
   10     1         4.0634490555         2.7882492477        22.1805393248        -6.6357930999        -0.0172947816         0.0038636853         0.0080331359         0.0194568447        23.4099009758    14 
   11     1         4.8430704990         1.0976225712        29.9283239777        -6.5600109820         0.0203732371         0.0267050472        -0.0261248251         0.0425527299        23.9386912058    14 
   12     1         4.0598610883         2.8049206504        27.3554216985        -6.6071566156        -0.0208827487         0.0205350880         0.0121523294         0.0317089600        23.4704122917    15 
   13     1         6.6902783857         0.8704467272        17.0701263071        -6.5603334590         0.0126975615         0.0137127080         0.0952751099         0.0970907461        24.2954585591    16 
   14     1         6.6714466070         0.8505263476        22.1796035828        -6.6366496098        -0.0061342172        -0.0062076716         0.0070973938         0.0112488580        23.4106373917    15 
   15     1         6.6782198701         0.8780344406        27.3445263488        -6.6007948025         0.0006390459         0.0213004214         0.0012569798         0.0213470450        23.4355301760    13 
   16     1         5.1816922029         4.2896239317        19.6326405727        -6.5825882879        -0.0119817715         0.0059538357         0.0466099418         0.0484922435        23.1938794431    14 
   17     1         4.4572473225         5.9792853696        17.0701263071        -6.5603334590         0.0055267731        -0.0178527648         0.0952751099         0.0970907462        24.2954585591    16 
   18     1         5.1928839941         4.2813689906        24.7623769706        -6.6322012848        -0.0007899803        -0.0023011054         0.0055831596         0.0060902238        23.4163888333    13 
   19     1         4.4494116571         6.0055543581        22.1796035828        -6.6366496098        -0.0023088924         0.0084162237         0.0070973938         0.0112488579        23.4106373918    15 
   20     1         5.1761915257         4.2356466169        29.9815578866        -6.5760776450        -0.0174824486        -0.0480234791         0.0271090838         0.0578514734        23.8039588894    14 
   21     1         4.4698477329         5.9859344937        27.3445263488        -6.6007948025         0.0181271835        -0.0112036407         0.0012569798         0.0213470453        23.4355301761    13 
   22     1         7.7913456743         2.3426651162        19.6326405727        -6.5825882879         0.0008347127        -0.0133534366         0.0466099418         0.0484922436        23.1938794431    14 
   23     1         7.0485575367         4.0694865911        17.1067730041        -6.6025125427         0.0000000001        -0.0000000001         0.1319218069         0.1319218069        24.5013213576    19 
   24     1         7.7928987674         2.3564849623        24.7623769706        -6.6322012848         0.0023878058         0.0004664095         0.0055831596         0.0060902237        23.4163888333    13 
   25     1         7.0485575367         4.0694865911        22.1917891957        -6.6397200005         0.0000000001        -0.0000000001         0.0192830068         0.0192830068        23.3909602892    15 
   26     1         7.8408417387         2.3648900475        29.9815578866        -6.5760776450         0.0503307772         0.0088714947         0.0271090838         0.0578514734        23.8039588894    13 
   27     1         7.0485575367         4.0694865911        27.3672237056        -6.6136680186         0.0000000001        -0.0000000001         0.0239543365         0.0239543365        23.6318137327    15 
   28     1        10.3940729845         0.3887760561        19.5762132126        -6.6149519529         0.0067250358        -0.0395909535        -0.0098174184         0.0413406750        23.4316179326    14 
   29     1         9.6262491168         2.1245515642        17.0585138362        -6.5600767531        -0.0191454070        -0.0172834837         0.0836626390         0.0875482872        24.2562265667    15 
   30     1        10.3989448841         0.4197093938        24.7617346032        -6.6339413309         0.0115969354        -0.0086576158         0.0049407922         0.0152923069        23.4344898069    13 
   31     1         9.6506958650         2.1249254848        22.1805393248        -6.6357930999         0.0053013411        -0.0169095632         0.0080331359         0.0194568450        23.4099009758    14 
   32     1        10.3816046214         0.3544216703        29.9420624624        -6.5706166039        -0.0057433274        -0.0739453393        -0.0123863404         0.0751952155        23.9348086355    13 
   33     1         9.6380519903         2.1134825128        27.3554216985        -6.6071566156        -0.0073425336        -0.0283525352         0.0121523294         0.0317089603        23.4704122916    15 
   34     1        12.2225274339         0.1333775163        16.9349511806        -6.6110989599        -0.0197040771        -0.0808059885        -0.0399000166         0.0922489553        23.7707098418    16 
   35     1        12.2485780166         0.2028650959        22.1619228741        -6.6338287960         0.0063465056        -0.0113184089        -0.0105833148         0.0167448818        23.4556857057    16 
   36     1        12.2464655924         0.1825684047        27.3811196739        -6.6256899612         0.0042340814        -0.0316151001         0.0378503048         0.0494983593        23.5128275439    15 
   37     1         5.5859950067         7.4950817099        19.6053728632        -6.5894947485         0.0213443199        -0.0013409581         0.0193422323         0.0288357436        23.2656216817    14 
   38     1         5.5750587605         7.4958804861        24.7626005420        -6.6331037459         0.0104080737        -0.0005421819         0.0058067310         0.0119306363        23.4286322156    14 
   39     1         5.5775913178         7.4654264035        29.9283239777        -6.5600109820         0.0129406310        -0.0309962645        -0.0261248250         0.0425527299        23.9386912058    14 
   40     1         8.1726347329         5.5761707254        19.6326405727        -6.5825882879         0.0111470589         0.0073996006         0.0466099418         0.0484922436        23.1938794431    14 
   41     1         7.4440748886         7.2743004962        17.0585138362        -6.5600767531         0.0245406395        -0.0079386670         0.0836626390         0.0875482871        24.2562265666    15 
   42     1         8.1598898485         5.5706058205        24.7623769706        -6.6322012848        -0.0015978255         0.0018346957         0.0055831596         0.0060902238        23.4163888333    13 
   43     1         7.4315276898         7.2952850408        22.1805393248        -6.6357930999         0.0119934407         0.0130458776         0.0080331359         0.0194568449        23.4099009758    14 
   44     1         8.1286393456         5.6079231090        29.9815578866        -6.5760776450        -0.0328483284         0.0391519842         0.0271090838         0.0578514734        23.8039588893    13 
   45     1         7.4477595316         7.2900566101        27.3554216985        -6.6071566156         0.0282252825         0.0078174469         0.0121523294         0.0317089603        23.4704122917    15 
   46     1        10.7464911975         3.6233053374        19.6053728632        -6.5894947485        -0.0118334637        -0.0178142442         0.0193422323         0.0288357436        23.2656216816    14 
   47     1         9.9981469020         5.3587276766        17.0701263071        -6.5603334590        -0.0182243343         0.0041400566         0.0952751099         0.0970907461        24.2954585591    16 
   48     1        10.7526510810         3.6323770164        24.7626005420        -6.6331037459        -0.0056735802        -0.0087425652         0.0058067310         0.0119306364        23.4286322156    14 
   49     1        10.0248143461         5.3523790677        22.1796035828        -6.6366496098         0.0084431098        -0.0022085523         0.0070973938         0.0112488580        23.4106373917    15 
   50     1        10.7250107932         3.6454107987        29.9283239777        -6.5600109820        -0.0333138680         0.0042912171        -0.0261248251         0.0425527300        23.9386912057    14 
   51     1         9.9976050072         5.3444908391        27.3445263488        -6.6007948025        -0.0187662290        -0.0100967809         0.0012569798         0.0213470451        23.4355301760    13 
   52     1        13.3298992094         1.6939936662        19.5481803261        -6.6256899612        -0.0252624390        -0.0194743722        -0.0378503048         0.0494983593        23.5128275439    13 
   53     1        12.5462980177         3.3949372745        16.9872375376        -6.5706166039        -0.0669102058        -0.0319988023         0.0123863404         0.0751952154        23.9348086353    13 
   54     1        13.3485328717         1.7023125988        24.7673771259        -6.6338287960        -0.0066287767        -0.0111554396         0.0105833148         0.0167448818        23.4556857057    14 
   55     1        12.6115089761         3.4125640282        22.1675653968        -6.6339413309        -0.0016992474        -0.0143720486        -0.0049407922         0.0152923069        23.4344898069    13 
   56     1        13.2753295711         1.6901292754        29.9943488194        -6.6110989599        -0.0798320773        -0.0233387630         0.0399000166         0.0922489553        23.7707098417    14 
   57     1        12.5822839700         3.4013165481        27.3530867874        -6.6149519529        -0.0309242534        -0.0256195287         0.0098174184         0.0413406749        23.4316179326    14 
   58     1         8.5633886399         8.8071432254        19.5762132126        -6.6149519529         0.0309242534         0.0256195287        -0.0098174184         0.0413406749        23.4316179326    14 
   59     1         7.8703430389        10.5183304982        16.9349511806        -6.6110989599         0.0798320773         0.0233387630        -0.0399000166         0.0922489553        23.7707098417    14 
   60     1         8.5341636338         8.7958957454        24.7617346032        -6.6339413309         0.0016992474         0.0143720486         0.0049407922         0.0152923069        23.4344898069    13 
   61     1         7.7971397383        10.5061471748        22.1619228741        -6.6338287960         0.0066287767         0.0111554396        -0.0105833148         0.0167448818        23.4556857057    14 
   62     1         8.5993745923         8.8135224991        29.9420624624        -6.5706166039         0.0669102058         0.0319988023        -0.0123863404         0.0751952154        23.9348086353    13 
   63     1         7.8157734006        10.5144661074        27.3811196739        -6.6256899612         0.0252624390         0.0194743722         0.0378503048         0.0494983593        23.5128275439    13 
   64     1        11.1480676027         6.8639689345        19.5847736512        -6.6007948025         0.0187662290         0.0100967809        -0.0012569798         0.0213470451        23.4355301760    13 
   65     1        10.4206618167         8.5630489749        17.0009760223        -6.5600109820         0.0333138680        -0.0042912171         0.0261248251         0.0425527300        23.9386912057    14 
   66     1        11.1208582638         6.8560807059        24.7496964172        -6.6366496098        -0.0084431098         0.0022085523        -0.0070973938         0.0112488580        23.4106373917    15 
   67     1        10.3930215289         8.5760827572        22.1666994580        -6.6331037459         0.0056735802         0.0087425652        -0.0058067310         0.0119306364        23.4286322156    14 
   68     1        11.1475257080         6.8497320970        29.8591736929        -6.5603334590         0.0182243343        -0.0041400566        -0.0952751099         0.0970907461        24.2954585591    16 
   69     1        10.3991814125         8.5851544362        27.3239271368        -6.5894947485         0.0118334637         0.0178142442        -0.0193422323         0.0288357436        23.2656216816    14 
   70     1        13.6979130783         4.9184031634        19.5738783015        -6.6071566156        -0.0282252825        -0.0078174469        -0.0121523294         0.0317089603        23.4704122917    15 
   71     1        13.0170332643         6.6005366646        16.9477421134        -6.5760776450         0.0328483284        -0.0391519842        -0.0271090838         0.0578514734        23.8039588893    13 
   72     1        13.7141449202         4.9131747328        24.7487606752        -6.6357930999        -0.0119934407        -0.0130458776        -0.0080331359         0.0194568449        23.4099009758    14 
   73     1        12.9857827614         6.6378539531        22.1669230294        -6.6322012848         0.0015978255        -0.0018346957        -0.0055831596         0.0060902238        23.4163888333    13 
   74     1        13.7015977214         4.9341592774        29.8707861638        -6.5600767531        -0.0245406395         0.0079386670        -0.0836626390         0.0875482871        24.2562265666    15 
   75     1        12.9730378771         6.6322890481        27.2966594273        -6.5825882879        -0.0111470589        -0.0073996006        -0.0466099418         0.0484922436        23.1938794431    14 
   76     1        15.5680812922         4.7430333701        17.0009760223        -6.5600109820        -0.0129406310         0.0309962645         0.0261248250         0.0425527299        23.9386912058    14 
   77     1        15.5706138495         4.7125792875        22.1666994580        -6.6331037459        -0.0104080737         0.0005421819        -0.0058067310         0.0119306363        23.4286322156    14 
   78     1        15.5596776033         4.7133780636        27.3239271368        -6.5894947485        -0.0213443199         0.0013409581        -0.0193422323         0.0288357436        23.2656216817    14 
   79     1         8.8992070175        12.0258913688        19.5481803261        -6.6256899612        -0.0042340814         0.0316151001        -0.0378503048         0.0494983593        23.5128275439    15 
   80     1         8.8970945934        12.0055946776        24.7673771259        -6.6338287960        -0.0063465056         0.0113184089         0.0105833148         0.0167448818        23.4556857057    16 
   81     1         8.9231451761        12.0750822573        29.9943488194        -6.6110989599         0.0197040771         0.0808059885         0.0399000166         0.0922489553        23.7707098418    16 
   82     1        11.5076206197        10.0949772608        19.5738783015        -6.6071566156         0.0073425336         0.0283525352        -0.0121523294         0.0317089603        23.4704122916    15 
   83     1        10.7640679886        11.8540381032        16.9872375376        -6.5706166039         0.0057433274         0.0739453393         0.0123863404         0.0751952155        23.9348086355    13 
   84     1        11.4949767450        10.0835342887        24.7487606752        -6.6357930999        -0.0053013411         0.0169095632        -0.0080331359         0.0194568450        23.4099009758    14 
   85     1        10.7467277258        11.7887503798        22.1675653968        -6.6339413309        -0.0115969354         0.0086576158        -0.0049407922         0.0152923069        23.4344898069    13 
   86     1        11.5194234931        10.0839082093        29.8707861638        -6.5600767531         0.0191454070         0.0172834837        -0.0836626390         0.0875482872        24.2562265667    15 
   87     1        10.7515996254        11.8196837175        27.3530867874        -6.6149519529        -0.0067250358         0.0395909535         0.0098174184         0.0413406750        23.4316179326    14 
   88     1        14.0971150732         8.1389731824        19.5620762944        -6.6136680186        -0.0000000001         0.0000000001        -0.0239543365         0.0239543365        23.6318137327    15 
   89     1        13.3048308712         9.8435697261        16.9477421134        -6.5760776450        -0.0503307772        -0.0088714947        -0.0271090838         0.0578514734        23.8039588894    13 
   90     1        14.0971150732         8.1389731824        24.7375108043        -6.6397200005        -0.0000000001         0.0000000001        -0.0192830068         0.0192830068        23.3909602892    15 
   91     1        13.3527738425         9.8519748113        22.1669230294        -6.6322012848        -0.0023878058        -0.0004664095        -0.0055831596         0.0060902237        23.4163888333    13 
   92     1        14.0971150732         8.1389731825        29.8225269959        -6.6025125427        -0.0000000001         0.0000000001        -0.1319218069         0.1319218069        24.5013213576    19 
   93     1        13.3543269357         9.8657946574        27.2966594273        -6.5825882879        -0.0008347127         0.0133534366        -0.0466099418         0.0484922436        23.1938794431    14 
   94     1        16.6758248770         6.2225252799        19.5847736512        -6.6007948025        -0.0181271835         0.0112036407        -0.0012569798         0.0213470453        23.4355301761    13 
   95     1        15.9694810842         7.9728131566        16.9477421134        -6.5760776450         0.0174824486         0.0480234791        -0.0271090838         0.0578514734        23.8039588894    14 
   96     1        16.6962609529         6.2029054155        24.7496964172        -6.6366496098         0.0023088924        -0.0084162237        -0.0070973938         0.0112488579        23.4106373918    15 
   97     1        15.9527886159         7.9270907830        22.1669230294        -6.6322012848         0.0007899803         0.0023011054        -0.0055831596         0.0060902238        23.4163888333    13 
   98     1        16.6884252874         6.2291744040        29.8591736929        -6.5603334590        -0.0055267731         0.0178527648        -0.0952751099         0.0970907462        24.2954585591    16 
   99     1        15.9639804071         7.9188358418        27.2966594273        -6.5825882879         0.0119817715        -0.0059538357        -0.0466099418         0.0484922435        23.1938794431    14 
  100     1        14.4674527399        11.3304253330        19.5847736512        -6.6007948025        -0.0006390459        -0.0213004214        -0.0012569798         0.0213470450        23.4355301760    13 
  101     1        14.4742260030        11.3579334260        24.7496964172        -6.6366496098         0.0061342172         0.0062076716        -0.0070973938         0.0112488580        23.4106373917    15 
  102     1        14.4553942243        11.3380130464        29.8591736929        -6.5603334590        -0.0126975615        -0.0137127080        -0.0952751099         0.0970907461        24.2954585591    16 
  103     1        17.0858115216         9.4035391231        19.5738783015        -6.6071566156         0.0208827487        -0.0205350880        -0.0121523294         0.0317089600        23.4704122917    15 
  104     1        16.3026021109        11.1108372024        17.0009760223        -6.5600109820        -0.0203732371        -0.0267050472         0.0261248251         0.0425527299        23.9386912058    14 
  105     1        17.0822235545         9.4202105259        24.7487606752        -6.6357930999         0.0172947816        -0.0038636853        -0.0080331359         0.0194568447        23.4099009758    14 
  106     1        16.3277098415        11.1282575027        22.1666994580        -6.6331037459         0.0047344934        -0.0092847469        -0.0058067310         0.0119306361        23.4286322156    14 
  107     1        17.0703240052         9.3988520606        29.8707861638        -6.5600767531         0.0053952322        -0.0252221505        -0.0836626390         0.0875482871        24.2562265668    15 
  108     1        16.3324862041        11.1183870475        27.3239271368        -6.5894947485         0.0095108561        -0.0191552020        -0.0193422323         0.0288357434        23.2656216817    14 
  109     1        18.9809792136         9.1679441696        16.9872375376        -6.5706166039         0.0611668784        -0.0419465368         0.0123863404         0.0751952152        23.9348086355    13 
  110     1        18.9331085179         9.2156051394        22.1675653968        -6.6339413309         0.0132961827         0.0057144330        -0.0049407922         0.0152923068        23.4344898069    13 
  111     1        18.9574616244         9.1959192817        27.3530867875        -6.6149519529         0.0376492892        -0.0139714246         0.0098174184         0.0413406747        23.4316179327    14 
  112     1        20.0622389928        10.6970345123        19.5481803261        -6.6256899612         0.0294965202        -0.0121407276        -0.0378503048         0.0494983590        23.5128275439    13 
  113     1        20.0457177547        10.7090122709        24.7673771259        -6.6338287960         0.0129752821        -0.0001629690         0.0105833148         0.0167448815        23.4556857057    14 
  114     1        20.0928704725        10.6517080147        29.9943488194        -6.6110989599         0.0601279999        -0.0574672253         0.0399000166         0.0922489549        23.7707098418    14 
  115     1         1.8506494809         0.1825684047         3.9050803261        -6.6256899612        -0.0042340814        -0.0316151001        -0.0378503048         0.0494983593        23.5128275439    15 
  116     1         1.8485370567         0.2028650959         9.1242771259        -6.6338287960        -0.0063465056        -0.0113184089         0.0105833148         0.0167448818        23.4556857057    16 
  117     1         1.8745876394         0.1333775163        14.3512488194        -6.6110989599         0.0197040771        -0.0808059885         0.0399000166         0.0922489554        23.7707098418    16 
  118     1         3.7155104519         0.3544216703         1.3441375376        -6.5706166039         0.0057433274        -0.0739453393         0.0123863404         0.0751952155        23.9348086354    13 
  119     1         3.6981701892         0.4197093938         6.5244653968        -6.6339413309        -0.0115969354        -0.0086576158        -0.0049407922         0.0152923068        23.4344898069    13 
  120     1         3.7030420888         0.3887760561        11.7099867874        -6.6149519529        -0.0067250358        -0.0395909535         0.0098174184         0.0413406750        23.4316179326    14 
  121     1         4.4590630831         2.1134825128         3.9307783015        -6.6071566156         0.0073425336        -0.0283525352        -0.0121523294         0.0317089603        23.4704122917    15 
  122     1         3.3721042802         3.6454107987         1.3578760223        -6.5600109820         0.0333138681         0.0042912171         0.0261248251         0.0425527300        23.9386912057    14 
  123     1         4.4464192084         2.1249254848         9.1056606752        -6.6357930999        -0.0053013411        -0.0169095632        -0.0080331359         0.0194568449        23.4099009758    14 
  124     1         3.3444639924         3.6323770164         6.5235994580        -6.6331037459         0.0056735803        -0.0087425652        -0.0058067310         0.0119306364        23.4286322156    14 
  125     1         4.4708659565         2.1245515642        14.2276861638        -6.5600767531         0.0191454071        -0.0172834838        -0.0836626390         0.0875482872        24.2562265667    15 
  126     1         3.3506238759         3.6233053374        11.6808271368        -6.5894947485         0.0118334638        -0.0178142442        -0.0193422323         0.0288357436        23.2656216816    14 
  127     1         7.4188952033         0.8780344406         3.9416736512        -6.6007948025        -0.0006390458         0.0213004214        -0.0012569798         0.0213470449        23.4355301760    13 
  128     1         6.2562733346         2.3648900475         1.3046421134        -6.5760776450        -0.0503307771         0.0088714947        -0.0271090838         0.0578514733        23.8039588893    13 
  129     1         7.4256684664         0.8505263476         9.1065964172        -6.6366496098         0.0061342172        -0.0062076716        -0.0070973938         0.0112488580        23.4106373917    15 
  130     1         6.3042163059         2.3564849623         6.5238230294        -6.6322012848        -0.0023878058         0.0004664095        -0.0055831596         0.0060902237        23.4163888333    13 
  131     1         7.4068366877         0.8704467271        14.2160736929        -6.5603334590        -0.0126975614         0.0137127079        -0.0952751099         0.0970907461        24.2954585591    16 
  132     1         6.3057693991         2.3426651162        11.6535594273        -6.5825882879        -0.0008347127        -0.0133534366        -0.0466099418         0.0484922436        23.1938794431    14 
  133     1         9.2540445743         1.0976225712         1.3578760223        -6.5600109820        -0.0203732371         0.0267050472         0.0261248251         0.0425527299        23.9386912058    14 
  134     1         9.2791523048         1.0802022709         6.5235994580        -6.6331037459         0.0047344934         0.0092847469        -0.0058067310         0.0119306361        23.4286322156    14 
  135     1         9.2839286675         1.0900727260        11.6808271368        -6.5894947485         0.0095108561         0.0191552020        -0.0193422323         0.0288357434        23.2656216817    14 
  136     1         4.0995100662         5.3444908390         3.9416736512        -6.6007948025         0.0187662292        -0.0100967809        -0.0012569798         0.0213470453        23.4355301760    13 
  137     1         4.0723007273         5.3523790677         9.1065964172        -6.6366496098        -0.0084431097        -0.0022085523        -0.0070973938         0.0112488579        23.4106373917    15 
  138     1         4.0989681714         5.3587276766        14.2160736929        -6.5603334590         0.0182243344         0.0041400566        -0.0952751098         0.0970907462        24.2954585591    16 
  139     1         7.0485575367         4.0694865911         3.9189762944        -6.6136680186         0.0000000000        -0.0000000001        -0.0239543365         0.0239543365        23.6318137327    15 
  140     1         5.9684757278         5.6079231090         1.3046421134        -6.5760776450         0.0328483285         0.0391519842        -0.0271090838         0.0578514735        23.8039588893    13 
  141     1         7.0485575367         4.0694865911         9.0944108043        -6.6397200005         0.0000000000        -0.0000000001        -0.0192830068         0.0192830068        23.3909602892    15 
  142     1         5.9372252249         5.5706058205         6.5238230294        -6.6322012848         0.0015978256         0.0018346957        -0.0055831596         0.0060902238        23.4163888333    13 